# vtk DataFile Version 3.0
vtk output at time 1
ASCII
DATASET UNSTRUCTURED_GRID
POINTS 1331 float
0 0 0 1 0 0 1 1 0 
0 1 0 4.13683e-05 4.13683e-05 0.980666 0.999959 4.13683e-05 0.980666 
0.999959 0.999959 0.980666 4.13683e-05 0.999959 0.980666 0.1 0 0 
0.2 0 0 0.3 0 0 0.4 0 0 
0.5 0 0 0.6 0 0 0.7 0 0 
0.8 0 0 0.9 0 0 1.007 -0.00700132 0.0942868 
1.00927 -0.00927381 0.18954 1.01076 -0.0107636 0.286139 1.0116 -0.0116038 0.383357 
1.01187 -0.0118743 0.481247 1.01149 -0.0114896 0.579975 1.01023 -0.010233 0.679611 
1.00787 -0.00787331 0.779958 1.00429 -0.00429434 0.880478 0.90011 0.000113639 0.976726 
0.800107 0.000342675 0.973333 0.699883 0.000413855 0.970685 0.599869 0.000650865 0.968495 
0.5 0.000801745 0.967556 0.400131 0.000650865 0.968495 0.300117 0.000413855 0.970685 
0.199893 0.000342675 0.973333 0.0998904 0.000113639 0.976726 -0.00429434 -0.00429434 0.880478 
-0.00787331 -0.00787331 0.779958 -0.010233 -0.010233 0.679611 -0.0114896 -0.0114896 0.579975 
-0.0118743 -0.0118743 0.481247 -0.0116038 -0.0116038 0.383357 -0.0107636 -0.0107636 0.286139 
-0.00927381 -0.00927381 0.18954 -0.00700132 -0.00700132 0.0942868 1 0.1 0 
1 0.2 0 1 0.3 0 1 0.4 0 
1 0.5 0 1 0.6 0 1 0.7 0 
1 0.8 0 1 0.9 0 1.007 1.007 0.0942868 
1.00927 1.00927 0.18954 1.01076 1.01076 0.286139 1.0116 1.0116 0.383357 
1.01187 1.01187 0.481247 1.01149 1.01149 0.579975 1.01023 1.01023 0.679611 
1.00787 1.00787 0.779958 1.00429 1.00429 0.880478 0.999886 0.90011 0.976726 
0.999657 0.800107 0.973333 0.999586 0.699883 0.970685 0.999349 0.599869 0.968495 
0.999198 0.5 0.967556 0.999349 0.400131 0.968495 0.999586 0.300117 0.970685 
0.999657 0.199893 0.973333 0.999886 0.0998904 0.976726 0.9 1 0 
0.8 1 0 0.7 1 0 0.6 1 0 
0.5 1 0 0.4 1 0 0.3 1 0 
0.2 1 0 0.1 1 0 -0.00700132 1.007 0.0942868 
-0.00927381 1.00927 0.18954 -0.0107636 1.01076 0.286139 -0.0116038 1.0116 0.383357 
-0.0118743 1.01187 0.481247 -0.0114896 1.01149 0.579975 -0.010233 1.01023 0.679611 
-0.00787331 1.00787 0.779958 -0.00429434 1.00429 0.880478 0.0998904 0.999886 0.976726 
0.199893 0.999657 0.973333 0.300117 0.999586 0.970685 0.400131 0.999349 0.968495 
0.5 0.999198 0.967556 0.599869 0.999349 0.968495 0.699883 0.999586 0.970685 
0.800107 0.999657 0.973333 0.90011 0.999886 0.976726 0 0.9 0 
0 0.8 0 0 0.7 0 0 0.6 0 
0 0.5 0 0 0.4 0 0 0.3 0 
0 0.2 0 0 0.1 0 0.000113639 0.0998904 0.976726 
0.000342675 0.199893 0.973333 0.000413855 0.300117 0.970685 0.000650865 0.400131 0.968495 
0.000801745 0.5 0.967556 0.000650865 0.599869 0.968495 0.000413855 0.699883 0.970685 
0.000342675 0.800107 0.973333 0.000113639 0.90011 0.976726 0.0953053 -0.00668739 0.0958189 
0.196699 -0.00706182 0.0959339 0.297803 -0.007363 0.0959353 0.398889 -0.00757266 0.0958734 
0.5 -0.00764802 0.0958468 0.601111 -0.00757266 0.0958734 0.702197 -0.007363 0.0959353 
0.803301 -0.00706182 0.0959339 0.904695 -0.00668739 0.0958189 0.0924352 -0.00956185 0.191039 
0.194265 -0.00980559 0.191471 0.296088 -0.0102472 0.191425 0.398003 -0.0105691 0.191283 
0.5 -0.0106888 0.191216 0.601997 -0.0105691 0.191283 0.703912 -0.0102472 0.191425 
0.805735 -0.00980559 0.191471 0.907565 -0.00956185 0.191039 0.0907198 -0.0110464 0.287047 
0.192573 -0.0115009 0.287228 0.294791 -0.0120462 0.286964 0.397306 -0.0124874 0.286636 
0.5 -0.0126514 0.286498 0.602694 -0.0124874 0.286636 0.705209 -0.0120462 0.286964 
0.807427 -0.0115009 0.287228 0.90928 -0.0110464 0.287047 0.0896506 -0.0118758 0.383611 
0.191428 -0.012514 0.383207 0.293833 -0.0133008 0.38246 0.396768 -0.0139154 0.381806 
0.5 -0.0141457 0.381552 0.603232 -0.0139154 0.381806 0.706167 -0.0133008 0.38246 
0.808572 -0.012514 0.383207 0.910349 -0.0118758 0.383611 0.0890812 -0.0121988 0.480771 
0.190691 -0.013102 0.479601 0.293159 -0.0142587 0.478176 0.396373 -0.0151485 0.477077 
0.5 -0.0154762 0.476672 0.603627 -0.0151485 0.477077 0.706841 -0.0142587 0.478176 
0.809309 -0.013102 0.479601 0.910919 -0.0121988 0.480771 0.0890901 -0.0119342 0.578674 
0.190442 -0.0132067 0.57667 0.292844 -0.0148825 0.574501 0.396171 -0.0161282 0.572932 
0.5 -0.0165778 0.572375 0.603829 -0.0161282 0.572932 0.707156 -0.0148825 0.574501 
0.809558 -0.0132067 0.57667 0.91091 -0.0119342 0.578674 0.0899523 -0.0108324 0.677422 
0.190967 -0.0124902 0.674694 0.293118 -0.0147352 0.671931 0.396291 -0.0162889 0.670005 
0.5 -0.0168438 0.669333 0.603709 -0.0162889 0.670005 0.706882 -0.0147352 0.671931 
0.809033 -0.0124902 0.674694 0.910048 -0.0108324 0.677422 0.0920027 -0.00853119 0.776944 
0.192608 -0.0103366 0.773818 0.294306 -0.0127646 0.770888 0.396958 -0.0143404 0.768797 
0.5 -0.0148447 0.768064 0.603042 -0.0143404 0.768797 0.705694 -0.0127646 0.770888 
0.807392 -0.0103366 0.773818 0.907997 -0.00853119 0.776944 0.095507 -0.00480384 0.876865 
0.195794 -0.00605628 0.873667 0.29681 -0.0077741 0.870884 0.398329 -0.0087151 0.868784 
0.5 -0.00895856 0.868005 0.601671 -0.0087151 0.868784 0.70319 -0.0077741 0.870884 
0.804206 -0.00605628 0.873667 0.904493 -0.00480384 0.876865 1.00669 0.0953053 0.0958189 
1.00706 0.196699 0.0959339 1.00736 0.297803 0.0959353 1.00757 0.398889 0.0958734 
1.00765 0.5 0.0958468 1.00757 0.601111 0.0958734 1.00736 0.702197 0.0959353 
1.00706 0.803301 0.0959339 1.00669 0.904695 0.0958189 1.00956 0.0924352 0.191039 
1.00981 0.194265 0.191471 1.01025 0.296088 0.191425 1.01057 0.398003 0.191283 
1.01069 0.5 0.191216 1.01057 0.601997 0.191283 1.01025 0.703912 0.191425 
1.00981 0.805735 0.191471 1.00956 0.907565 0.191039 1.01105 0.0907198 0.287047 
1.0115 0.192573 0.287228 1.01205 0.294791 0.286964 1.01249 0.397306 0.286636 
1.01265 0.5 0.286498 1.01249 0.602694 0.286636 1.01205 0.705209 0.286964 
1.0115 0.807427 0.287228 1.01105 0.90928 0.287047 1.01188 0.0896506 0.383611 
1.01251 0.191428 0.383207 1.0133 0.293833 0.38246 1.01392 0.396768 0.381806 
1.01415 0.5 0.381552 1.01392 0.603232 0.381806 1.0133 0.706167 0.38246 
1.01251 0.808572 0.383207 1.01188 0.910349 0.383611 1.0122 0.0890812 0.480771 
1.0131 0.190691 0.479601 1.01426 0.293159 0.478176 1.01515 0.396373 0.477077 
1.01548 0.5 0.476672 1.01515 0.603627 0.477077 1.01426 0.706841 0.478176 
1.0131 0.809309 0.479601 1.0122 0.910919 0.480771 1.01193 0.0890901 0.578674 
1.01321 0.190442 0.57667 1.01488 0.292844 0.574501 1.01613 0.396171 0.572932 
1.01658 0.5 0.572375 1.01613 0.603829 0.572932 1.01488 0.707156 0.574501 
1.01321 0.809558 0.57667 1.01193 0.91091 0.578674 1.01083 0.0899523 0.677422 
1.01249 0.190967 0.674694 1.01474 0.293118 0.671931 1.01629 0.396291 0.670005 
1.01684 0.5 0.669333 1.01629 0.603709 0.670005 1.01474 0.706882 0.671931 
1.01249 0.809033 0.674694 1.01083 0.910048 0.677422 1.00853 0.0920027 0.776944 
1.01034 0.192608 0.773818 1.01276 0.294306 0.770888 1.01434 0.396958 0.768797 
1.01484 0.5 0.768064 1.01434 0.603042 0.768797 1.01276 0.705694 0.770888 
1.01034 0.807392 0.773818 1.00853 0.907997 0.776944 1.0048 0.095507 0.876865 
1.00606 0.195794 0.873667 1.00777 0.29681 0.870884 1.00872 0.398329 0.868784 
1.00896 0.5 0.868005 1.00872 0.601671 0.868784 1.00777 0.70319 0.870884 
1.00606 0.804206 0.873667 1.0048 0.904493 0.876865 0.904695 1.00669 0.0958189 
0.803301 1.00706 0.0959339 0.702197 1.00736 0.0959353 0.601111 1.00757 0.0958734 
0.5 1.00765 0.0958468 0.398889 1.00757 0.0958734 0.297803 1.00736 0.0959353 
0.196699 1.00706 0.0959339 0.0953053 1.00669 0.0958189 0.907565 1.00956 0.191039 
0.805735 1.00981 0.191471 0.703912 1.01025 0.191425 0.601997 1.01057 0.191283 
0.5 1.01069 0.191216 0.398003 1.01057 0.191283 0.296088 1.01025 0.191425 
0.194265 1.00981 0.191471 0.0924352 1.00956 0.191039 0.90928 1.01105 0.287047 
0.807427 1.0115 0.287228 0.705209 1.01205 0.286964 0.602694 1.01249 0.286636 
0.5 1.01265 0.286498 0.397306 1.01249 0.286636 0.294791 1.01205 0.286964 
0.192573 1.0115 0.287228 0.0907198 1.01105 0.287047 0.910349 1.01188 0.383611 
0.808572 1.01251 0.383207 0.706167 1.0133 0.38246 0.603232 1.01392 0.381806 
0.5 1.01415 0.381552 0.396768 1.01392 0.381806 0.293833 1.0133 0.38246 
0.191428 1.01251 0.383207 0.0896506 1.01188 0.383611 0.910919 1.0122 0.480771 
0.809309 1.0131 0.479601 0.706841 1.01426 0.478176 0.603627 1.01515 0.477077 
0.5 1.01548 0.476672 0.396373 1.01515 0.477077 0.293159 1.01426 0.478176 
0.190691 1.0131 0.479601 0.0890812 1.0122 0.480771 0.91091 1.01193 0.578674 
0.809558 1.01321 0.57667 0.707156 1.01488 0.574501 0.603829 1.01613 0.572932 
0.5 1.01658 0.572375 0.396171 1.01613 0.572932 0.292844 1.01488 0.574501 
0.190442 1.01321 0.57667 0.0890901 1.01193 0.578674 0.910048 1.01083 0.677422 
0.809033 1.01249 0.674694 0.706882 1.01474 0.671931 0.603709 1.01629 0.670005 
0.5 1.01684 0.669333 0.396291 1.01629 0.670005 0.293118 1.01474 0.671931 
0.190967 1.01249 0.674694 0.0899523 1.01083 0.677422 0.907997 1.00853 0.776944 
0.807392 1.01034 0.773818 0.705694 1.01276 0.770888 0.603042 1.01434 0.768797 
0.5 1.01484 0.768064 0.396958 1.01434 0.768797 0.294306 1.01276 0.770888 
0.192608 1.01034 0.773818 0.0920027 1.00853 0.776944 0.904493 1.0048 0.876865 
0.804206 1.00606 0.873667 0.70319 1.00777 0.870884 0.601671 1.00872 0.868784 
0.5 1.00896 0.868005 0.398329 1.00872 0.868784 0.29681 1.00777 0.870884 
0.195794 1.00606 0.873667 0.095507 1.0048 0.876865 -0.00668739 0.904695 0.0958189 
-0.00706182 0.803301 0.0959339 -0.007363 0.702197 0.0959353 -0.00757266 0.601111 0.0958734 
-0.00764802 0.5 0.0958468 -0.00757266 0.398889 0.0958734 -0.007363 0.297803 0.0959353 
-0.00706182 0.196699 0.0959339 -0.00668739 0.0953053 0.0958189 -0.00956185 0.907565 0.191039 
-0.00980559 0.805735 0.191471 -0.0102472 0.703912 0.191425 -0.0105691 0.601997 0.191283 
-0.0106888 0.5 0.191216 -0.0105691 0.398003 0.191283 -0.0102472 0.296088 0.191425 
-0.00980559 0.194265 0.191471 -0.00956185 0.0924352 0.191039 -0.0110464 0.90928 0.287047 
-0.0115009 0.807427 0.287228 -0.0120462 0.705209 0.286964 -0.0124874 0.602694 0.286636 
-0.0126514 0.5 0.286498 -0.0124874 0.397306 0.286636 -0.0120462 0.294791 0.286964 
[...]
POINT_DATA 1331
VECTORS displacement float
0 0 0
0 0 0
0 0 0
0 0 0
4.13683e-05 4.13683e-05 -0.019334
-4.13683e-05 4.13683e-05 -0.019334
-4.13683e-05 -4.13683e-05 -0.019334
4.13683e-05 -4.13683e-05 -0.019334
0 0 0
0 0 0
0 0 0
0 0 0
0 0 0
0 0 0
0 0 0
0 0 0
0 0 0
0.00700132 -0.00700132 -0.00571319
0.00927381 -0.00927381 -0.0104601
0.0107636 -0.0107636 -0.0138615
0.0116038 -0.0116038 -0.0166428
0.0118743 -0.0118743 -0.0187532
0.0114896 -0.0114896 -0.0200254
0.010233 -0.010233 -0.0203892
0.00787331 -0.00787331 -0.0200415
0.00429434 -0.00429434 -0.0195216
0.000109637 0.000113639 -0.0232744
0.000106711 0.000342675 -0.0266668
-0.000116817 0.000413855 -0.0293155
-0.000130543 0.000650865 -0.0315047
2.05735e-17 0.000801745 -0.032444
0.000130543 0.000650865 -0.0315047
0.000116817 0.000413855 -0.0293155
-0.000106711 0.000342675 -0.0266668
-0.000109637 0.000113639 -0.0232744
-0.00429434 -0.00429434 -0.0195216
-0.00787331 -0.00787331 -0.0200415
-0.010233 -0.010233 -0.0203892
-0.0114896 -0.0114896 -0.0200254
-0.0118743 -0.0118743 -0.0187532
-0.0116038 -0.0116038 -0.0166428
-0.0107636 -0.0107636 -0.0138615
-0.00927381 -0.00927381 -0.0104601
-0.00700132 -0.00700132 -0.00571319
0 0 0
0 0 0
0 0 0
0 0 0
0 0 0
0 0 0
0 0 0
0 0 0
0 0 0
0.00700132 0.00700132 -0.00571319
0.00927381 0.00927381 -0.0104601
0.0107636 0.0107636 -0.0138615
0.0116038 0.0116038 -0.0166428
0.0118743 0.0118743 -0.0187532
0.0114896 0.0114896 -0.0200254
0.010233 0.010233 -0.0203892
0.00787331 0.00787331 -0.0200415
0.00429434 0.00429434 -0.0195216
-0.000113639 0.000109637 -0.0232744
-0.000342675 0.000106711 -0.0266668
-0.000413855 -0.000116817 -0.0293155
-0.000650865 -0.000130543 -0.0315047
-0.000801745 3.48411e-17 -0.032444
-0.000650865 0.000130543 -0.0315047
-0.000413855 0.000116817 -0.0293155
-0.000342675 -0.000106711 -0.0266668
-0.000113639 -0.000109637 -0.0232744
0 0 0
0 0 0
0 0 0
0 0 0
0 0 0
0 0 0
0 0 0
0 0 0
0 0 0
-0.00700132 0.00700132 -0.00571319
-0.00927381 0.00927381 -0.0104601
-0.0107636 0.0107636 -0.0138615
-0.0116038 0.0116038 -0.0166428
-0.0118743 0.0118743 -0.0187532
-0.0114896 0.0114896 -0.0200254
-0.010233 0.010233 -0.0203892
-0.00787331 0.00787331 -0.0200415
-0.00429434 0.00429434 -0.0195216
-0.000109637 -0.000113639 -0.0232744
-0.000106711 -0.000342675 -0.0266668
0.000116817 -0.000413855 -0.0293155
0.000130543 -0.000650865 -0.0315047
-6.27433e-17 -0.000801745 -0.032444
-0.000130543 -0.000650865 -0.0315047
-0.000116817 -0.000413855 -0.0293155
0.000106711 -0.000342675 -0.0266668
0.000109637 -0.000113639 -0.0232744
0 0 0
0 0 0
0 0 0
0 0 0
0 0 0
0 0 0
0 0 0
0 0 0
0 0 0
0.000113639 -0.000109637 -0.0232744
0.000342675 -0.000106711 -0.0266668
0.000413855 0.000116817 -0.0293155
0.000650865 0.000130543 -0.0315047
0.000801745 -1.08939e-17 -0.032444
0.000650865 -0.000130543 -0.0315047
0.000413855 -0.000116817 -0.0293155
0.000342675 0.000106711 -0.0266668
0.000113639 0.000109637 -0.0232744
-0.00469472 -0.00668739 -0.00418112
-0.00330106 -0.00706182 -0.00406612
-0.00219683 -0.007363 -0.00406474
-0.00111098 -0.00757266 -0.00412658
2.43597e-17 -0.00764802 -0.00415322
0.00111098 -0.00757266 -0.00412658
0.00219683 -0.007363 -0.00406474
0.00330106 -0.00706182 -0.00406612
0.00469472 -0.00668739 -0.00418112
-0.00756482 -0.00956185 -0.00896106
-0.00573451 -0.00980559 -0.00852905
-0.003912 -0.0102472 -0.00857502
-0.00199661 -0.0105691 -0.00871693
4.14081e-17 -0.0106888 -0.00878431
0.00199661 -0.0105691 -0.00871693
0.003912 -0.0102472 -0.00857502
0.00573451 -0.00980559 -0.00852905
0.00756482 -0.00956185 -0.00896106
-0.00928017 -0.0110464 -0.0129528
-0.00742695 -0.0115009 -0.0127724
-0.00520871 -0.0120462 -0.0130365
-0.00269353 -0.0124874 -0.0133645
3.15223e-17 -0.0126514 -0.013502
0.00269353 -0.0124874 -0.0133645
0.00520871 -0.0120462 -0.0130365
0.00742695 -0.0115009 -0.0127724
0.00928017 -0.0110464 -0.0129528
-0.0103494 -0.0118758 -0.0163891
-0.00857212 -0.012514 -0.0167926
-0.00616721 -0.0133008 -0.0175396
-0.0032322 -0.0139154 -0.0181944
3.47338e-17 -0.0141457 -0.018448
0.0032322 -0.0139154 -0.0181944
0.00616721 -0.0133008 -0.0175396
0.00857212 -0.012514 -0.0167926
0.0103494 -0.0118758 -0.0163891
-0.0109188 -0.0121988 -0.0192291
-0.00930914 -0.013102 -0.0203993
-0.00684064 -0.0142587 -0.0218239
-0.00362692 -0.0151485 -0.0229233
2.93109e-17 -0.0154762 -0.023328
0.00362692 -0.0151485 -0.0229233
0.00684064 -0.0142587 -0.0218239
0.00930914 -0.013102 -0.0203993
0.0109188 -0.0121988 -0.0192291
-0.0109099 -0.0119342 -0.0213262
-0.00955757 -0.0132067 -0.0233296
-0.00715571 -0.0148825 -0.0254995
-0.00382897 -0.0161282 -0.0270685
-4.57813e-17 -0.0165778 -0.027625
0.00382897 -0.0161282 -0.0270685
0.00715571 -0.0148825 -0.0254995
0.00955757 -0.0132067 -0.0233296
0.0109099 -0.0119342 -0.0213262
-0.0100477 -0.0108324 -0.0225775
-0.00903335 -0.0124902 -0.0253057
-0.00688158 -0.0147352 -0.0280692
-0.0037093 -0.0162889 -0.0299951
-2.68831e-17 -0.0168438 -0.0306669
0.0037093 -0.0162889 -0.0299951
0.00688158 -0.0147352 -0.0280692
0.00903335 -0.0124902 -0.0253057
0.0100477 -0.0108324 -0.0225775
-0.00799732 -0.00853119 -0.0230557
-0.00739183 -0.0103366 -0.0261823
-0.00569384 -0.0127646 -0.0291122
-0.00304235 -0.0143404 -0.0312031
4.58898e-17 -0.0148447 -0.0319355
0.00304235 -0.0143404 -0.0312031
0.00569384 -0.0127646 -0.0291122
0.00739183 -0.0103366 -0.0261823
0.00799732 -0.00853119 -0.0230557
-0.004493 -0.00480384 -0.023135
-0.00420624 -0.00605628 -0.026333
-0.00319032 -0.0077741 -0.0291164
-0.00167111 -0.0087151 -0.0312165
7.84154e-17 -0.00895856 -0.0319952
0.00167111 -0.0087151 -0.0312165
0.00319032 -0.0077741 -0.0291164
0.00420624 -0.00605628 -0.026333
0.004493 -0.00480384 -0.023135
0.00668739 -0.00469472 -0.00418112
0.00706182 -0.00330106 -0.00406612
0.007363 -0.00219683 -0.00406474
0.00757266 -0.00111098 -0.00412658
0.00764802 6.11822e-17 -0.00415322
0.00757266 0.00111098 -0.00412658
0.007363 0.00219683 -0.00406474
0.00706182 0.00330106 -0.00406612
0.00668739 0.00469472 -0.00418112
0.00956185 -0.00756482 -0.00896106
0.00980559 -0.00573451 -0.00852905
0.0102472 -0.003912 -0.00857502
0.0105691 -0.00199661 -0.00871693
0.0106888 -2.54093e-17 -0.00878431
0.0105691 0.00199661 -0.00871693
0.0102472 0.003912 -0.00857502
0.00980559 0.00573451 -0.00852905
0.00956185 0.00756482 -0.00896106
0.0110464 -0.00928017 -0.0129528
0.0115009 -0.00742695 -0.0127724
0.0120462 -0.00520871 -0.0130365
0.0124874 -0.00269353 -0.0133645
0.0126514 -1.84683e-17 -0.013502
0.0124874 0.00269353 -0.0133645
0.0120462 0.00520871 -0.0130365
0.0115009 0.00742695 -0.0127724
0.0110464 0.00928017 -0.0129528
0.0118758 -0.0103494 -0.0163891
0.012514 -0.00857212 -0.0167926
0.0133008 -0.00616721 -0.0175396
0.0139154 -0.0032322 -0.0181944
0.0141457 -9.6816e-18 -0.018448
0.0139154 0.0032322 -0.0181944
0.0133008 0.00616721 -0.0175396
0.012514 0.00857212 -0.0167926
0.0118758 0.0103494 -0.0163891
0.0121988 -0.0109188 -0.0192291
0.013102 -0.00930914 -0.0203993
0.0142587 -0.00684064 -0.0218239
0.0151485 -0.00362692 -0.0229233
0.0154762 -6.31489e-18 -0.023328
0.0151485 0.00362692 -0.0229233
0.0142587 0.00684064 -0.0218239
0.013102 0.00930914 -0.0203993
0.0121988 0.0109188 -0.0192291
0.0119342 -0.0109099 -0.0213262
0.0132067 -0.00955757 -0.0233296
0.0148825 -0.00715571 -0.0254995
0.0161282 -0.00382897 -0.0270685
0.0165778 1.01839e-16 -0.027625
0.0161282 0.00382897 -0.0270685
0.0148825 0.00715571 -0.0254995
0.0132067 0.00955757 -0.0233296
0.0119342 0.0109099 -0.0213262
0.0108324 -0.0100477 -0.0225775
0.0124902 -0.00903335 -0.0253057
0.0147352 -0.00688158 -0.0280692
0.0162889 -0.0037093 -0.0299951
0.0168438 7.21193e-17 -0.0306669
0.0162889 0.0037093 -0.0299951
0.0147352 0.00688158 -0.0280692
0.0124902 0.00903335 -0.0253057
0.0108324 0.0100477 -0.0225775
0.00853119 -0.00799732 -0.0230557
0.0103366 -0.00739183 -0.0261823
0.0127646 -0.00569384 -0.0291122
0.0143404 -0.00304235 -0.0312031
0.0148447 4.78376e-17 -0.0319355
0.0143404 0.00304235 -0.0312031
0.0127646 0.00569384 -0.0291122
0.0103366 0.00739183 -0.0261823
0.00853119 0.00799732 -0.0230557
0.00480384 -0.004493 -0.023135
0.00605628 -0.00420624 -0.026333
0.0077741 -0.00319032 -0.0291164
0.0087151 -0.00167111 -0.0312165
0.00895856 3.85204e-19 -0.0319952
0.0087151 0.00167111 -0.0312165
0.0077741 0.00319032 -0.0291164
0.00605628 0.00420624 -0.026333
0.00480384 0.004493 -0.023135
0.00469472 0.00668739 -0.00418112
0.00330106 0.00706182 -0.00406612
0.00219683 0.007363 -0.00406474
0.00111098 0.00757266 -0.00412658
-1.0643e-18 0.00764802 -0.00415322
-0.00111098 0.00757266 -0.00412658
-0.00219683 0.007363 -0.00406474
-0.00330106 0.00706182 -0.00406612
-0.00469472 0.00668739 -0.00418112
0.00756482 0.00956185 -0.00896106
0.00573451 0.00980559 -0.00852905
0.003912 0.0102472 -0.00857502
0.00199661 0.0105691 -0.00871693
-1.54457e-17 0.0106888 -0.00878431
-0.00199661 0.0105691 -0.00871693
-0.003912 0.0102472 -0.00857502
-0.00573451 0.00980559 -0.00852905
-0.00756482 0.00956185 -0.00896106
0.00928017 0.0110464 -0.0129528
0.00742695 0.0115009 -0.0127724
0.00520871 0.0120462 -0.0130365
0.00269353 0.0124874 -0.0133645
-3.25558e-17 0.0126514 -0.013502
-0.00269353 0.0124874 -0.0133645
-0.00520871 0.0120462 -0.0130365
-0.00742695 0.0115009 -0.0127724
-0.00928017 0.0110464 -0.0129528
0.0103494 0.0118758 -0.0163891
0.00857212 0.012514 -0.0167926
0.00616721 0.0133008 -0.0175396
0.0032322 0.0139154 -0.0181944
1.85363e-17 0.0141457 -0.018448
-0.0032322 0.0139154 -0.0181944
-0.00616721 0.0133008 -0.0175396
-0.00857212 0.012514 -0.0167926
-0.0103494 0.0118758 -0.0163891
0.0109188 0.0121988 -0.0192291
0.00930914 0.013102 -0.0203993
0.00684064 0.0142587 -0.0218239
0.00362692 0.0151485 -0.0229233
-7.78247e-17 0.0154762 -0.023328
-0.00362692 0.0151485 -0.0229233
-0.00684064 0.0142587 -0.0218239
-0.00930914 0.013102 -0.0203993
-0.0109188 0.0121988 -0.0192291
0.0109099 0.0119342 -0.0213262
0.00955757 0.0132067 -0.0233296
0.00715571 0.0148825 -0.0254995
0.00382897 0.0161282 -0.0270685
6.1112e-17 0.0165778 -0.027625
-0.00382897 0.0161282 -0.0270685
-0.00715571 0.0148825 -0.0254995
-0.00955757 0.0132067 -0.0233296
-0.0109099 0.0119342 -0.0213262
0.0100477 0.0108324 -0.0225775
0.00903335 0.0124902 -0.0253057
0.00688158 0.0147352 -0.0280692
0.0037093 0.0162889 -0.0299951
-4.94027e-17 0.0168438 -0.0306669
-0.0037093 0.0162889 -0.0299951
-0.00688158 0.0147352 -0.0280692
-0.00903335 0.0124902 -0.0253057
-0.0100477 0.0108324 -0.0225775
0.00799732 0.00853119 -0.0230557
0.00739183 0.0103366 -0.0261823
0.00569384 0.0127646 -0.0291122
0.00304235 0.0143404 -0.0312031
9.22188e-18 0.0148447 -0.0319355
-0.00304235 0.0143404 -0.0312031
-0.00569384 0.0127646 -0.0291122
-0.00739183 0.0103366 -0.0261823
-0.00799732 0.00853119 -0.0230557
0.004493 0.00480384 -0.023135
0.00420624 0.00605628 -0.026333
0.00319032 0.0077741 -0.0291164
0.00167111 0.0087151 -0.0312165
-1.33774e-17 0.00895856 -0.0319952
-0.00167111 0.0087151 -0.0312165
-0.00319032 0.0077741 -0.0291164
-0.00420624 0.00605628 -0.026333
-0.004493 0.00480384 -0.023135
-0.00668739 0.00469472 -0.00418112
-0.00706182 0.00330106 -0.00406612
-0.007363 0.00219683 -0.00406474
-0.00757266 0.00111098 -0.00412658
-0.00764802 -4.83187e-17 -0.00415322
-0.00757266 -0.00111098 -0.00412658
-0.007363 -0.00219683 -0.00406474
-0.00706182 -0.00330106 -0.00406612
-0.00668739 -0.00469472 -0.00418112
-0.00956185 0.00756482 -0.00896106
-0.00980559 0.00573451 -0.00852905
-0.0102472 0.003912 -0.00857502
-0.0105691 0.00199661 -0.00871693
-0.0106888 -7.84161e-17 -0.00878431
-0.0105691 -0.00199661 -0.00871693
-0.0102472 -0.003912 -0.00857502
-0.00980559 -0.00573451 -0.00852905
-0.00956185 -0.00756482 -0.00896106
-0.0110464 0.00928017 -0.0129528
-0.0115009 0.00742695 -0.0127724
-0.0120462 0.00520871 -0.0130365
-0.0124874 0.00269353 -0.0133645
-0.0126514 3.03556e-17 -0.013502
-0.0124874 -0.00269353 -0.0133645
-0.0120462 -0.00520871 -0.0130365
-0.0115009 -0.00742695 -0.0127724
-0.0110464 -0.00928017 -0.0129528
-0.0118758 0.0103494 -0.0163891
-0.012514 0.00857212 -0.0167926
-0.0133008 0.00616721 -0.0175396
-0.0139154 0.0032322 -0.0181944
-0.0141457 4.06041e-17 -0.018448
-0.0139154 -0.0032322 -0.0181944
-0.0133008 -0.00616721 -0.0175396
-0.012514 -0.00857212 -0.0167926
-0.0118758 -0.0103494 -0.0163891
-0.0121988 0.0109188 -0.0192291
-0.013102 0.00930914 -0.0203993
-0.0142587 0.00684064 -0.0218239
-0.0151485 0.00362692 -0.0229233
-0.0154762 3.98446e-18 -0.023328
-0.0151485 -0.00362692 -0.0229233
-0.0142587 -0.00684064 -0.0218239
-0.013102 -0.00930914 -0.0203993
-0.0121988 -0.0109188 -0.0192291
-0.0119342 0.0109099 -0.0213262
-0.0132067 0.00955757 -0.0233296
-0.0148825 0.00715571 -0.0254995
-0.0161282 0.00382897 -0.0270685
-0.0165778 -2.67291e-17 -0.027625
-0.0161282 -0.00382897 -0.0270685
-0.0148825 -0.00715571 -0.0254995
-0.0132067 -0.00955757 -0.0233296
-0.0119342 -0.0109099 -0.0213262
-0.0108324 0.0100477 -0.0225775
-0.0124902 0.00903335 -0.0253057
-0.0147352 0.00688158 -0.0280692
-0.0162889 0.0037093 -0.0299951
-0.0168438 5.31932e-17 -0.0306669
-0.0162889 -0.0037093 -0.0299951
-0.0147352 -0.00688158 -0.0280692
-0.0124902 -0.00903335 -0.0253057
-0.0108324 -0.0100477 -0.0225775
-0.00853119 0.00799732 -0.0230557
-0.0103366 0.00739183 -0.0261823
-0.0127646 0.00569384 -0.0291122
-0.0143404 0.00304235 -0.0312031
-0.0148447 3.63384e-17 -0.0319355
-0.0143404 -0.00304235 -0.0312031
-0.0127646 -0.00569384 -0.0291122
-0.0103366 -0.00739183 -0.0261823
-0.00853119 -0.00799732 -0.0230557
-0.00480384 0.004493 -0.023135
-0.00605628 0.00420624 -0.026333
-0.0077741 0.00319032 -0.0291164
-0.0087151 0.00167111 -0.0312165
-0.00895856 4.22421e-17 -0.0319952
-0.0087151 -0.00167111 -0.0312165
-0.0077741 -0.00319032 -0.0291164
-0.00605628 -0.00420624 -0.026333
-0.00480384 -0.004493 -0.023135
0 0 0
0 0 0
0 0 0
0 0 0
0 0 0
0 0 0
0 0 0
0 0 0
0 0 0
0 0 0
0 0 0
0 0 0
0 0 0
0 0 0
0 0 0
0 0 0
0 0 0
0 0 0
0 0 0
0 0 0
0 0 0
0 0 0
0 0 0
0 0 0
0 0 0
0 0 0
0 0 0
0 0 0
0 0 0
0 0 0
0 0 0
0 0 0
0 0 0
0 0 0
0 0 0
0 0 0
0 0 0
0 0 0
0 0 0
0 0 0
0 0 0
0 0 0
0 0 0
0 0 0
0 0 0
0 0 0
0 0 0
0 0 0
0 0 0
0 0 0
0 0 0
0 0 0
0 0 0
0 0 0
0 0 0
0 0 0
0 0 0
0 0 0
0 0 0
0 0 0
0 0 0
0 0 0
0 0 0
0 0 0
0 0 0
0 0 0
0 0 0
0 0 0
0 0 0
0 0 0
0 0 0
0 0 0
0 0 0
0 0 0
0 0 0
0 0 0
0 0 0
0 0 0
0 0 0
0 0 0
0 0 0
0.000105913 0.000105913 -0.0279836
0.000328347 0.000511523 -0.0326045
0.000390616 0.000614355 -0.0366294
0.000467454 0.00115022 -0.0403237
6.25067e-17 0.00152647 -0.041619
-0.000467454 0.00115022 -0.0403237
-0.000390616 0.000614355 -0.0366294
-0.000328347 0.000511523 -0.0326045
-0.000105913 0.000105913 -0.0279836
0.000511523 0.000328347 -0.0326045
0.00101199 0.00101199 -0.0415287
0.00182056 0.00139447 -0.0474384
8.10534e-05 0.00251064 -0.0558469
-9.02616e-17 0.00211475 -0.0575492
-8.10534e-05 0.00251064 -0.0558469
-0.00182056 0.00139447 -0.0474384
-0.00101199 0.00101199 -0.0415287
-0.000511523 0.000328347 -0.0326045
0.000614355 0.000390616 -0.0366294
0.00139447 0.00182056 -0.0474384
-0.00469639 -0.00469639 -0.1
-0.000550279 -0.00241877 -0.1
-9.31165e-17 -0.00220559 -0.1
0.000550279 -0.00241877 -0.1
0.00469639 -0.00469639 -0.1
-0.00139447 0.00182056 -0.0474384
-0.000614355 0.000390616 -0.0366294
0.00115022 0.000467454 -0.0403237
0.00251064 8.10534e-05 -0.0558469
-0.00241877 -0.000550279 -0.1
0.000189615 0.000189615 -0.1
9.83665e-18 0.000464806 -0.1
-0.000189615 0.000189615 -0.1
0.00241877 -0.000550279 -0.1
-0.00251064 8.10534e-05 -0.0558469
-0.00115022 0.000467454 -0.0403237
0.00152647 9.64398e-18 -0.041619
0.00211475 -1.1696e-17 -0.0575492
-0.00220559 -6.71604e-17 -0.1
0.000464806 -3.36232e-17 -0.1
-2.79405e-17 -3.05879e-17 -0.1
-0.000464806 5.11756e-17 -0.1
0.00220559 -1.40038e-16 -0.1
-0.00211475 -4.80446e-18 -0.0575492
-0.00152647 -1.89663e-17 -0.041619
0.00115022 -0.000467454 -0.0403237
0.00251064 -8.10534e-05 -0.0558469
-0.00241877 0.000550279 -0.1
0.000189615 -0.000189615 -0.1
-1.34771e-16 -0.000464806 -0.1
-0.000189615 -0.000189615 -0.1
0.00241877 0.000550279 -0.1
-0.00251064 -8.10534e-05 -0.0558469
-0.00115022 -0.000467454 -0.0403237
0.000614355 -0.000390616 -0.0366294
0.00139447 -0.00182056 -0.0474384
-0.00469639 0.00469639 -0.1
-0.000550279 0.00241877 -0.1
2.43145e-17 0.00220559 -0.1
0.000550279 0.00241877 -0.1
0.00469639 0.00469639 -0.1
-0.00139447 -0.00182056 -0.0474384
-0.000614355 -0.000390616 -0.0366294
0.000511523 -0.000328347 -0.0326045
0.00101199 -0.00101199 -0.0415287
0.00182056 -0.00139447 -0.0474384
8.10534e-05 -0.00251064 -0.0558469
3.9003e-17 -0.00211475 -0.0575492
-8.10534e-05 -0.00251064 -0.0558469
-0.00182056 -0.00139447 -0.0474384
-0.00101199 -0.00101199 -0.0415287
-0.000511523 -0.000328347 -0.0326045
0.000105913 -0.000105913 -0.0279836
0.000328347 -0.000511523 -0.0326045
0.000390616 -0.000614355 -0.0366294
0.000467454 -0.00115022 -0.0403237
-8.77971e-17 -0.00152647 -0.041619
-0.000467454 -0.00115022 -0.0403237
-0.000390616 -0.000614355 -0.0366294
-0.000328347 -0.000511523 -0.0326045
-0.000105913 -0.000105913 -0.0279836
-0.0045609 -0.0045609 -0.00264722
-0.00318523 -0.00473108 -0.0025013
-0.00208189 -0.00496007 -0.0024473
-0.00104031 -0.00512892 -0.00246425
-5.5238e-17 -0.00519094 -0.00247422
0.00104031 -0.00512892 -0.00246425
0.00208189 -0.00496007 -0.0024473
0.00318523 -0.00473108 -0.0025013
0.0045609 -0.0045609 -0.00264722
-0.00473108 -0.00318523 -0.0025013
-0.00330013 -0.00330013 -0.00232026
-0.00214553 -0.00346274 -0.00226049
-0.00106712 -0.00359437 -0.00227397
1.782e-17 -0.00364333 -0.00228309
0.00106712 -0.00359437 -0.00227397
0.00214553 -0.00346274 -0.00226049
0.00330013 -0.00330013 -0.00232026
0.00473108 -0.00318523 -0.0025013
-0.00496007 -0.00208189 -0.0024473
-0.00346274 -0.00214553 -0.00226049
-0.00225454 -0.00225454 -0.00219793
-0.00112144 -0.00234436 -0.00221323
2.71777e-17 -0.00237856 -0.00222307
0.00112144 -0.00234436 -0.00221323
0.00225454 -0.00225454 -0.00219793
0.00346274 -0.00214553 -0.00226049
0.00496007 -0.00208189 -0.0024473
-0.00512892 -0.00104031 -0.00246425
-0.00359437 -0.00106712 -0.00227397
-0.00234436 -0.00112144 -0.00221323
-0.00116744 -0.00116744 -0.00223142
1.3722e-17 -0.00118497 -0.00224259
0.00116744 -0.00116744 -0.00223142
0.00234436 -0.00112144 -0.00221323
0.00359437 -0.00106712 -0.00227397
0.00512892 -0.00104031 -0.00246425
-0.00519094 1.55046e-17 -0.00247422
-0.00364333 5.15543e-18 -0.00228309
-0.00237856 3.78321e-17 -0.00222307
-0.00118497 -3.60584e-18 -0.00224259
4.70417e-17 2.98729e-17 -0.00225425
0.00118497 -2.26637e-18 -0.00224259
0.00237856 -3.02871e-17 -0.00222307
0.00364333 4.47004e-17 -0.00228309
0.00519094 -7.00841e-17 -0.00247422
-0.00512892 0.00104031 -0.00246425
-0.00359437 0.00106712 -0.00227397
-0.00234436 0.00112144 -0.00221323
-0.00116744 0.00116744 -0.00223142
-1.76666e-17 0.00118497 -0.00224259
0.00116744 0.00116744 -0.00223142
0.00234436 0.00112144 -0.00221323
0.00359437 0.00106712 -0.00227397
0.00512892 0.00104031 -0.00246425
-0.00496007 0.00208189 -0.0024473
-0.00346274 0.00214553 -0.00226049
-0.00225454 0.00225454 -0.00219793
-0.00112144 0.00234436 -0.00221323
6.50734e-18 0.00237856 -0.00222307
0.00112144 0.00234436 -0.00221323
0.00225454 0.00225454 -0.00219793
0.00346274 0.00214553 -0.00226049
0.00496007 0.00208189 -0.0024473
-0.00473108 0.00318523 -0.0025013
-0.00330013 0.00330013 -0.00232026
-0.00214553 0.00346274 -0.00226049
-0.00106712 0.00359437 -0.00227397
3.44461e-18 0.00364333 -0.00228309
0.00106712 0.00359437 -0.00227397
0.00214553 0.00346274 -0.00226049
0.00330013 0.00330013 -0.00232026