# vtk DataFile Version 3.0
vtk output at time 1
ASCII
DATASET UNSTRUCTURED_GRID
POINTS 1331 float
0 0 0 1 0 0 1 1 0 
0 1 0 0.00497921 0.00497562 0.984591 0.995388 0.00500589 0.984412 
0.99542 0.995416 0.984083 0.00500848 0.995385 0.984416 0.1 0 0 
0.2 0 0 0.3 0 0 0.4 0 0 
0.5 0 0 0.6 0 0 0.7 0 0 
0.8 0 0 0.9 0 0 1.00422 -0.00424136 0.0931373 
1.00583 -0.00585084 0.189062 1.00705 -0.00705328 0.285931 1.00779 -0.00776896 0.383441 
1.0081 -0.00803639 0.481812 1.00776 -0.00764576 0.581296 1.00642 -0.00623761 0.681919 
1.00372 -0.00347157 0.783208 0.999736 0.000587374 0.884201 0.895545 0.00536607 0.980584 
0.795909 0.00678044 0.977692 0.696725 0.00860666 0.975686 0.598223 0.0101525 0.974285 
0.500184 0.010752 0.973809 0.402145 0.0101356 0.974313 0.303642 0.00857629 0.975744 
0.204457 0.00674296 0.977785 0.104821 0.00532926 0.980717 0.000582965 0.000580011 0.88438 
-0.00345432 -0.00345662 0.783388 -0.00620179 -0.00620344 0.682098 -0.00759656 -0.00759762 0.581468 
-0.00797947 -0.00798003 0.481971 -0.00770952 -0.0077097 0.383579 -0.00699616 -0.00699607 0.286044 
-0.00580187 -0.00580166 0.189146 -0.00420667 -0.0042065 0.0931875 1 0.1 0 
1 0.2 0 1 0.3 0 1 0.4 0 
1 0.5 0 1 0.6 0 1 0.7 0 
1 0.8 0 1 0.9 0 1.00426 1.00426 0.0930746 
1.00588 1.00588 0.18895 1.00711 1.00711 0.285769 1.00786 1.00786 0.383229 
1.00817 1.00817 0.481554 1.00784 1.00784 0.581001 1.00649 1.00649 0.6816 
1.00379 1.00379 0.782878 0.999789 0.999786 0.883871 0.995063 0.895571 0.980235 
0.993646 0.79594 0.977331 0.991814 0.696762 0.97532 0.99027 0.598276 0.973929 
0.989675 0.500237 0.97348 0.990286 0.402194 0.974019 0.991829 0.303678 0.975488 
0.993641 0.204486 0.977561 0.995042 0.104847 0.980517 0.9 1 0 
0.8 1 0 0.7 1 0 0.6 1 0 
0.5 1 0 0.4 1 0 0.3 1 0 
0.2 1 0 0.1 1 0 -0.00424083 1.00422 0.0931384 
-0.00585006 1.00583 0.189064 -0.0070522 1.00704 0.285934 -0.00776751 1.00779 0.383444 
-0.0080345 1.0081 0.481816 -0.00764342 1.00776 0.5813 -0.00623489 1.00641 0.681924 
-0.0034687 1.00372 0.783212 0.000590165 0.999734 0.884205 0.10485 0.995039 0.980521 
0.204489 0.993639 0.977565 0.303681 0.991826 0.975492 0.402198 0.990283 0.974023 
0.500241 0.989671 0.973483 0.59828 0.990266 0.973932 0.696766 0.99181 0.975321 
0.795944 0.993642 0.977332 0.895575 0.995059 0.980236 0 0.9 0 
0 0.8 0 0 0.7 0 0 0.6 0 
0 0.5 0 0 0.4 0 0 0.3 0 
0 0.2 0 0 0.1 0 0.00533295 0.104817 0.980717 
0.00674674 0.204454 0.977786 0.00858016 0.303639 0.975746 0.0101395 0.402141 0.974315 
0.0107557 0.50018 0.973812 0.0101557 0.598219 0.974288 0.00860931 0.696721 0.97569 
0.00678289 0.795906 0.977696 0.00536857 0.895542 0.980588 0.0973008 -0.00415665 0.0946761 
0.198062 -0.00423236 0.0948193 0.298679 -0.0043161 0.0947862 0.39932 -0.00439021 0.0947052 
0.499998 -0.00442138 0.0946673 0.600676 -0.00439752 0.094697 0.701318 -0.00433067 0.0947695 
0.801938 -0.00425404 0.0947935 0.902705 -0.00418506 0.09464 0.0952236 -0.00592504 0.190286 
0.196382 -0.0060701 0.190639 0.297511 -0.00625864 0.190525 0.39872 -0.00640704 0.190339 
0.500003 -0.00646686 0.190253 0.601287 -0.0064174 0.190325 0.702499 -0.00627921 0.190497 
0.803632 -0.00610057 0.190594 0.904797 -0.00596501 0.190221 0.0939287 -0.00708139 0.286709 
0.195086 -0.00732891 0.286751 0.296522 -0.00763573 0.286412 0.398194 -0.00788843 0.28603 
0.500015 -0.00798824 0.285867 0.601837 -0.00790028 0.28601 0.703511 -0.00765926 0.286372 
0.804951 -0.00736382 0.28669 0.906114 -0.00712729 0.286623 0.0930232 -0.00781302 0.383714 
0.194127 -0.0081835 0.3832 0.29572 -0.00868389 0.382383 0.39775 -0.00909553 0.381676 
0.500031 -0.00925658 0.381395 0.602313 -0.00910758 0.381653 0.704345 -0.00870783 0.382335 
0.805942 -0.00821912 0.383125 0.907051 -0.00786024 0.38361 0.0924994 -0.00814177 0.481443 
0.193474 -0.00874377 0.480184 0.295137 -0.00955184 0.478718 0.397417 -0.0102109 0.477575 
0.500052 -0.0104649 0.477139 0.602688 -0.0102219 0.477549 0.70497 -0.00957381 0.478663 
0.806637 -0.00877677 0.480099 0.907615 -0.0081861 0.481324 0.0925629 -0.00787145 0.580086 
0.193328 -0.00882793 0.577997 0.294936 -0.0100644 0.575847 0.397294 -0.0110522 0.574262 
0.500078 -0.0114235 0.573676 0.602861 -0.0110606 0.574233 0.705221 -0.0100815 0.575789 
0.80683 -0.00885435 0.577906 0.907598 -0.00790818 0.579957 0.0936482 -0.00661523 0.679721 
0.194139 -0.00793611 0.676943 0.295489 -0.00959235 0.674324 0.39759 -0.0108313 0.672481 
0.500106 -0.0112816 0.671808 0.602622 -0.010835 0.672452 0.704722 -0.00960081 0.674264 
0.806073 -0.00795124 0.67685 0.906565 -0.0066391 0.679588 0.0962432 -0.00391349 0.780108 
0.196439 -0.00519897 0.777065 0.297274 -0.00662089 0.774535 0.398593 -0.00767826 0.772736 
0.500136 -0.00804494 0.772083 0.601677 -0.0076754 0.772707 0.702995 -0.0066173 0.774476 
0.803828 -0.00519831 0.77697 0.904024 -0.00391955 0.779974 0.100393 0.00033057 0.880596 
0.200447 7.63125e-05 0.877675 0.300474 -5.61393e-05 0.875338 0.400365 -6.75134e-05 0.873845 
0.500163 -7.40676e-05 0.873286 0.599961 -5.75703e-05 0.873817 0.69985 -3.91532e-05 0.87528 
0.799874 9.52176e-05 0.877582 0.899925 0.000345545 0.880463 1.00418 0.097277 0.0946368 
1.00426 0.198044 0.0947787 1.00434 0.298666 0.0947435 1.00442 0.399311 0.0946603 
1.00445 0.499993 0.0946204 1.00443 0.600676 0.0946487 1.00436 0.701324 0.0947204 
1.00428 0.801951 0.0947439 1.00421 0.902727 0.0945897 1.00596 0.0951834 0.190208 
1.00611 0.196351 0.190562 1.00631 0.297487 0.190444 1.00646 0.398704 0.190253 
1.00652 0.499996 0.190162 1.00647 0.601288 0.190231 1.00633 0.70251 0.1904 
1.00614 0.803655 0.190495 1.006 0.904834 0.190118 1.00714 0.0938801 0.286598 
1.0074 0.195047 0.286637 1.00771 0.296491 0.286291 1.00796 0.398173 0.285901 
1.00806 0.500005 0.285731 1.00798 0.601839 0.285868 1.00773 0.703527 0.286225 
1.00743 0.804981 0.286539 1.00719 0.906159 0.286467 1.0079 0.092971 0.383573 
1.00828 0.194083 0.383052 1.00879 0.295685 0.382225 1.0092 0.397725 0.381506 
1.00937 0.500019 0.381211 1.00922 0.602316 0.381459 1.00882 0.704365 0.382134 
1.00832 0.805979 0.382921 1.00796 0.907103 0.383403 1.00827 0.092448 0.481277 
1.00888 0.193428 0.480007 1.0097 0.295099 0.478526 1.01036 0.397389 0.477364 
1.01062 0.500037 0.47691 1.01038 0.602691 0.477304 1.00973 0.704993 0.47841 
1.00893 0.806679 0.479844 1.00833 0.907673 0.481069 1.00805 0.0925171 0.579902 
1.00901 0.193286 0.577798 1.01026 0.294898 0.575627 1.01126 0.397264 0.574017 
1.01164 0.500061 0.573404 1.01128 0.602865 0.573941 1.0103 0.705248 0.575487 
1.00907 0.806879 0.577605 1.00811 0.907663 0.579661 1.00684 0.0936136 0.679527 
1.00817 0.194106 0.67673 1.00984 0.295457 0.674085 1.01109 0.397562 0.67221 
1.01156 0.50009 0.671504 1.01113 0.602628 0.672124 1.00989 0.704754 0.673925 
1.00823 0.806127 0.676513 1.00691 0.906633 0.679262 1.00419 0.0962256 0.779909 
1.00548 0.196421 0.776843 1.00692 0.297255 0.774285 1.00799 0.398578 0.772449 
1.00838 0.500131 0.771759 1.00803 0.601691 0.772356 1.00697 0.70303 0.774113 
1.00554 0.803881 0.776614 1.00425 0.904087 0.779631 0.999993 0.100397 0.880396 
1.00026 0.20045 0.877451 1.00041 0.300478 0.875083 1.00044 0.400375 0.873551 
1.00046 0.500183 0.872956 1.00046 0.59999 0.873462 1.00044 0.699887 0.874914 
1.0003 0.799918 0.877218 1.00004 0.899974 0.880114 0.902727 1.00421 0.0945898 
0.801951 1.00428 0.094744 0.701324 1.00436 0.0947207 0.600676 1.00443 0.0946491 
0.499993 1.00445 0.0946209 0.399311 1.00442 0.0946608 0.298666 1.00434 0.0947441 
0.198044 1.00426 0.0947794 0.0972772 1.00418 0.0946376 0.904833 1.006 0.190118 
0.803655 1.00614 0.190496 0.70251 1.00633 0.1904 0.601288 1.00647 0.190232 
0.499996 1.00652 0.190163 0.398704 1.00646 0.190254 0.297487 1.0063 0.190445 
0.196351 1.00611 0.190563 0.095184 1.00596 0.19021 0.906159 1.00719 0.286467 
0.804981 1.00743 0.286539 0.703527 1.00773 0.286226 0.601839 1.00798 0.285869 
0.500005 1.00806 0.285732 0.398173 1.00796 0.285903 0.296492 1.00771 0.286293 
0.195047 1.0074 0.286639 0.093881 1.00714 0.2866 0.907103 1.00796 0.383403 
0.805979 1.00832 0.382922 0.704365 1.00882 0.382136 0.602316 1.00922 0.381461 
0.500019 1.00937 0.381213 0.397726 1.0092 0.381508 0.295686 1.00879 0.382227 
0.194084 1.00828 0.383055 0.0929722 1.0079 0.383576 0.907674 1.00833 0.481069 
0.806679 1.00893 0.479845 0.704994 1.00973 0.478411 0.602692 1.01038 0.477305 
0.500038 1.01062 0.476912 0.39739 1.01036 0.477367 0.2951 1.0097 0.478529 
0.19343 1.00888 0.48001 0.0924497 1.00827 0.481281 0.907664 1.00811 0.579661 
0.80688 1.00907 0.577606 0.705249 1.0103 0.575488 0.602866 1.01128 0.573943 
0.500062 1.01164 0.573407 0.397265 1.01125 0.57402 0.2949 1.01026 0.575631 
0.193288 1.00901 0.577802 0.0925193 1.00804 0.579906 0.906635 1.00691 0.679262 
0.806128 1.00823 0.676514 0.704756 1.00989 0.673927 0.602629 1.01112 0.672126 
0.500092 1.01156 0.671507 0.397564 1.01109 0.672213 0.295459 1.00983 0.674088 
0.194108 1.00817 0.676734 0.0936163 1.00684 0.679531 0.90409 1.00425 0.779631 
0.803883 1.00554 0.776615 0.703032 1.00697 0.774115 0.601693 1.00803 0.772358 
0.500133 1.00838 0.771762 0.39858 1.00799 0.772453 0.297258 1.00692 0.774288 
0.196424 1.00548 0.776847 0.0962285 1.00418 0.779913 0.899977 1.00004 0.880114 
0.799921 1.0003 0.87722 0.69989 1.00044 0.874916 0.599993 1.00045 0.873464 
0.500186 1.00046 0.872959 0.400379 1.00044 0.873554 0.300481 1.0004 0.875087 
0.200453 1.00026 0.877455 0.1004 0.99999 0.8804 -0.00418454 0.902705 0.0946408 
-0.00425355 0.801938 0.0947942 -0.00433024 0.701318 0.0947701 -0.00439716 0.600676 0.0946976 
-0.00442108 0.499998 0.0946678 -0.00439 0.39932 0.0947056 -0.00431598 0.29868 0.0947864 
-0.00423233 0.198063 0.0948194 -0.00415671 0.097301 0.0946761 -0.00596424 0.904796 0.190223 
-0.00609983 0.803631 0.190596 -0.00627854 0.702499 0.190498 -0.00641681 0.601287 0.190326 
-0.00646638 0.500003 0.190253 -0.00640667 0.39872 0.19034 -0.00625839 0.297511 0.190526 
-0.00606999 0.196382 0.19064 -0.00592508 0.0952238 0.190286 -0.00712621 0.906113 0.286625 
[...]
POINT_DATA 1331
VECTORS displacement float
0 0 0
0 0 0
0 0 0
0 0 0
0.00497921 0.00497562 -0.0154095
-0.00461217 0.00500589 -0.0155876
-0.00458038 -0.00458397 -0.0159167
0.00500848 -0.00461476 -0.0155838
0 0 0
0 0 0
0 0 0
0 0 0
0 0 0
0 0 0
0 0 0
0 0 0
0 0 0
0.00422418 -0.00424136 -0.00686272
0.00582993 -0.00585084 -0.0109378
0.00704552 -0.00705328 -0.014069
0.00778926 -0.00776896 -0.0165589
0.0080982 -0.00803639 -0.0181877
0.00776133 -0.00764576 -0.018704
0.00641737 -0.00623761 -0.0180806
0.00372252 -0.00347157 -0.0167923
-0.000263592 0.000587374 -0.0157993
-0.00445509 0.00536607 -0.0194161
-0.00409124 0.00678044 -0.022308
-0.00327535 0.00860666 -0.0243141
-0.00177711 0.0101525 -0.0257152
0.000183884 0.010752 -0.0261908
0.00214452 0.0101356 -0.0256872
0.00364223 0.00857629 -0.0242559
0.00445727 0.00674296 -0.0222154
0.00482106 0.00532926 -0.0192832
0.000582965 0.000580011 -0.0156197
-0.00345432 -0.00345662 -0.0166116
-0.00620179 -0.00620344 -0.0179019
-0.00759656 -0.00759762 -0.0185323
-0.00797947 -0.00798003 -0.0180294
-0.00770952 -0.0077097 -0.0164205
-0.00699616 -0.00699607 -0.0139558
-0.00580187 -0.00580166 -0.0108537
-0.00420667 -0.0042065 -0.00681247
0 0 0
0 0 0
0 0 0
0 0 0
0 0 0
0 0 0
0 0 0
0 0 0
0 0 0
0.00426101 0.00426118 -0.00692541
0.00588022 0.00588043 -0.0110502
0.00710523 0.00710532 -0.0142312
0.00785564 0.00785547 -0.0167709
0.00817043 0.00816987 -0.0184457
0.00783803 0.00783697 -0.0189994
0.00649448 0.00649284 -0.0184001
0.00379201 0.00378972 -0.0171218
-0.000210917 -0.000213871 -0.0161293
-0.00493738 -0.00442896 -0.0197648
-0.00635421 -0.00406005 -0.0226692
-0.0081859 -0.0032379 -0.0246805
-0.00973022 -0.00172429 -0.026071
-0.0103251 0.000236862 -0.0265199
-0.00971393 0.00219377 -0.025981
-0.00817113 0.00367784 -0.0245118
-0.00635863 0.00448621 -0.0224394
-0.0049582 0.00484731 -0.0194829
0 0 0
0 0 0
0 0 0
0 0 0
0 0 0
0 0 0
0 0 0
0 0 0
0 0 0
-0.00424083 0.00422364 -0.00686162
-0.00585006 0.00582915 -0.0109358
-0.0070522 0.00704444 -0.0140663
-0.00776751 0.00778782 -0.0165556
-0.0080345 0.00809632 -0.0181838
-0.00764342 0.00775899 -0.0186998
-0.00623489 0.00641466 -0.0180764
-0.0034687 0.00371965 -0.0167883
0.000590165 -0.000266383 -0.0157955
0.00485002 -0.0049607 -0.0194791
0.00448922 -0.00636108 -0.0224355
0.00368119 -0.00817379 -0.024508
0.00219754 -0.00971712 -0.0259774
0.000240673 -0.0103288 -0.0265167
-0.0017205 -0.00973408 -0.0260685
-0.00323422 -0.00818978 -0.0246787
-0.00405645 -0.00635799 -0.022668
-0.00442538 -0.00494107 -0.0197642
0 0 0
0 0 0
0 0 0
0 0 0
0 0 0
0 0 0
0 0 0
0 0 0
0 0 0
0.00533295 0.00481749 -0.0192826
0.00674674 0.00445367 -0.0222141
0.00858016 0.00363856 -0.0242541
0.0101395 0.00214073 -0.0256847
0.0107557 0.000180072 -0.0261876
0.0101557 -0.00178088 -0.0257116
0.00860931 -0.00327871 -0.0243103
0.00678289 -0.00409424 -0.0223041
0.00536857 -0.00445779 -0.0194122
-0.00269918 -0.00415665 -0.00532394
-0.00193763 -0.00423236 -0.00518075
-0.00132055 -0.0043161 -0.00521382
-0.000679906 -0.00439021 -0.00529476
-2.20788e-06 -0.00442138 -0.00533268
0.000675917 -0.00439752 -0.00530299
0.00131798 -0.00433067 -0.00523052
0.00193795 -0.00425404 -0.00520655
0.00270525 -0.00418506 -0.00536002
-0.0047764 -0.00592504 -0.00971451
-0.00361791 -0.0060701 -0.00936057
-0.0024894 -0.00625864 -0.00947463
-0.00127993 -0.00640704 -0.00966074
3.20362e-06 -0.00646686 -0.00974742
0.00128708 -0.0064174 -0.00967484
0.00249889 -0.00627921 -0.00950347
0.00363171 -0.00610057 -0.00940558
0.00479684 -0.00596501 -0.00977853
-0.0060713 -0.00708139 -0.0132913
-0.00491363 -0.00732891 -0.0132487
-0.00347826 -0.00763573 -0.0135884
-0.00180642 -0.00788843 -0.0139704
1.45839e-05 -0.00798824 -0.0141332
0.00183645 -0.00790028 -0.0139895
0.00351087 -0.00765926 -0.0136276
0.00495052 -0.00736382 -0.01331
0.00611378 -0.00712729 -0.0133774
-0.00697685 -0.00781302 -0.0162857
-0.00587317 -0.0081835 -0.0168001
-0.00427979 -0.00868389 -0.0176173
-0.00225003 -0.00909553 -0.0183236
3.11915e-05 -0.00925658 -0.0186054
0.00231323 -0.00910758 -0.0183471
0.00434538 -0.00870783 -0.0176653
0.00594246 -0.00821912 -0.0168748
0.00705087 -0.00786024 -0.0163902
-0.00750059 -0.00814177 -0.0185573
-0.00652627 -0.00874377 -0.0198163
-0.00486301 -0.00955184 -0.021282
-0.00258291 -0.0102109 -0.0224248
5.24026e-05 -0.0104649 -0.0228607
0.00268839 -0.0102219 -0.0224515
0.00497044 -0.00957381 -0.0213365
0.00663668 -0.00877677 -0.019901
0.00761479 -0.0081861 -0.018676
-0.00743706 -0.00787145 -0.0199145
-0.0066717 -0.00882793 -0.0220028
-0.00506399 -0.0100644 -0.0241529
-0.00270588 -0.0110522 -0.0257382
7.75994e-05 -0.0114235 -0.0263243
0.00286147 -0.0110606 -0.0257666
0.00522075 -0.0100815 -0.0242112
0.00683042 -0.00885435 -0.0220938
0.0075985 -0.00790818 -0.0200425
-0.00635182 -0.00661523 -0.0202788
-0.00586062 -0.00793611 -0.0230565
-0.0045109 -0.00959235 -0.0256762
-0.00241047 -0.0108313 -0.0275193
0.000105883 -0.0112816 -0.0281921
0.00262215 -0.010835 -0.0275481
0.0047225 -0.00960081 -0.0257357
0.00607261 -0.00795124 -0.0231503
0.00656514 -0.0066391 -0.0204116
-0.0037568 -0.00391349 -0.0198916
-0.00356074 -0.00519897 -0.0229355
-0.00272619 -0.00662089 -0.0254649
-0.00140667 -0.00767826 -0.027264
0.000135552 -0.00804494 -0.0279171
0.00167713 -0.0076754 -0.0272925
0.00299502 -0.0066173 -0.0255242
0.00382793 -0.00519831 -0.0230296
0.00402367 -0.00391955 -0.0200258
0.000393299 0.00033057 -0.0194037
0.000447086 7.63125e-05 -0.0223249
0.000473902 -5.61393e-05 -0.0246618
0.000365342 -6.75134e-05 -0.0261553
0.000163401 -7.40676e-05 -0.0267135
-3.94528e-05 -5.75703e-05 -0.0261834
-0.000150384 -3.91532e-05 -0.0247203
-0.000126474 9.52176e-05 -0.0224183
-7.45241e-05 0.000345545 -0.0195374
0.00417904 -0.00272303 -0.00536319
0.00425819 -0.00195565 -0.00522131
0.00434409 -0.00133408 -0.00525651
0.00441957 -0.000689151 -0.00533973
0.00445142 -6.90389e-06 -0.00537958
0.0044276 0.000676276 -0.00535127
0.00436001 0.00132409 -0.00527957
0.0042817 0.0019509 -0.00525609
0.00420952 0.00272727 -0.00541026
0.00596249 -0.00481658 -0.00979175
0.00611329 -0.00364899 -0.00943832
0.00630547 -0.00251272 -0.00955625
0.00645592 -0.00129568 -0.009747
0.00651655 -4.45991e-06 -0.00983809
0.00646672 0.00128843 -0.00976905
0.00632683 0.00251037 -0.00960026
0.00614477 0.00365475 -0.00950454
0.00600363 0.0048336 -0.00988173
0.00714131 -0.00611991 -0.0134024
0.00739619 -0.00495318 -0.0133628
0.00770781 -0.00350865 -0.0137088
0.00796342 -0.00182722 -0.0140987
0.00806457 4.55406e-06 -0.0142693
0.00797632 0.00183867 -0.0141321
0.00773312 0.00352665 -0.013775
0.00743327 0.00498079 -0.013461
0.00718959 0.00615887 -0.0135329
0.00790371 -0.00702905 -0.0164266
0.00828239 -0.00591726 -0.0169479
0.00878874 -0.00431505 -0.0177754
0.00920469 -0.00227502 -0.0184942
0.00936845 1.87973e-05 -0.0187886
0.00922011 0.00231592 -0.0185406
0.00881836 0.00436474 -0.0178655
0.00832466 0.00597854 -0.0170787
0.00795787 0.00710257 -0.0165972
0.00827112 -0.00755203 -0.0187226
0.00888193 -0.00657152 -0.0199928
0.00969748 -0.00490107 -0.0214741
0.0103633 -0.00261138 -0.0226355
0.0106231 3.7481e-05 -0.0230903
0.0103832 0.00269127 -0.0226964
0.0097339 0.00499346 -0.0215898
0.00893109 0.0066789 -0.0201563
0.00833131 0.00767305 -0.0189313
0.00804583 -0.00748293 -0.0200978
0.0090116 -0.00671399 -0.0222017
0.0102576 -0.00510187 -0.0243727
0.011256 -0.00273622 -0.0259834
0.0116383 6.07629e-05 -0.0265957
0.0112834 0.00286486 -0.0260589
0.0103047 0.00524784 -0.0245135
0.00906954 0.00687914 -0.0223952
0.00811186 0.00766313 -0.0203392
0.00683876 -0.00638642 -0.0204732
0.0081692 -0.00589434 -0.0232701
0.00983704 -0.00454328 -0.0259154
0.0110911 -0.00243807 -0.0277902
0.0115586 9.02665e-05 -0.0284956
0.0111251 0.00262763 -0.0278763
0.009893 0.00475398 -0.0260747
0.00823426 0.00612658 -0.0234869
0.00690757 0.00663314 -0.0207383
0.00418759 -0.00377442 -0.0200911
0.00548292 -0.00357914 -0.0231568
0.00691863 -0.00274472 -0.0257155
0.00799472 -0.00142211 -0.0275508
0.00838274 0.000130639 -0.0282406
0.00802967 0.0016906 -0.0276443
0.00697443 0.00303006 -0.025887
0.0055449 0.00388111 -0.0233861
0.0042511 0.00408746 -0.0203691
-6.91477e-06 0.000396778 -0.0196041
0.000258525 0.000449822 -0.022549
0.000407758 0.000478119 -0.024917
0.000438982 0.000375453 -0.0264492
0.000463448 0.000182569 -0.0270442
0.000456383 -9.97726e-06 -0.0265382
0.00043966 -0.000112879 -0.0250858
0.000299963 -8.18565e-05 -0.0227815
3.93752e-05 -2.63208e-05 -0.0198863
0.00272709 0.00420958 -0.00541023
0.00195072 0.00428167 -0.00525595
0.00132393 0.00435989 -0.00527932
0.000676141 0.00442738 -0.00535091
-6.99811e-06 0.00445113 -0.00537913
-0.000689189 0.00441921 -0.00533918
-0.00133405 0.00434366 -0.00525587
-0.00195552 0.0042577 -0.00522058
-0.00272275 0.00417853 -0.00536235
0.0048334 0.00600366 -0.00988161
0.00365457 0.00614465 -0.00950424
0.00251023 0.00632658 -0.00959976
0.00128833 0.00646635 -0.00976836
-4.48453e-06 0.00651607 -0.00983721
-0.00129561 0.00645533 -0.00974594
-0.00251251 0.0063048 -0.00955503
-0.00364862 0.00611255 -0.00943691
-0.00481602 0.00596172 -0.00979012
0.00615879 0.00718947 -0.0135326
0.00498074 0.00743297 -0.0134605
0.00352664 0.00773266 -0.0137742
0.00183873 0.00797571 -0.0141311
4.71621e-06 0.00806383 -0.014268
-0.00182692 0.00796256 -0.0140971
-0.00350818 0.00770685 -0.013707
-0.00495251 0.00739516 -0.0133607
-0.00611903 0.00714024 -0.0134
0.00710276 0.00795748 -0.0165969
0.00597875 0.00832407 -0.0170781
0.004365 0.0088176 -0.0178645
0.00231625 0.00921918 -0.0185392
1.92396e-05 0.00936736 -0.0187868
-0.0022744 0.00920346 -0.0184921
-0.00431422 0.0087874 -0.0177729
-0.0059162 0.00828098 -0.0169451
-0.00702779 0.00790227 -0.0164236
0.00767362 0.00833053 -0.0189308
0.00667949 0.00893012 -0.0201555
0.00499407 0.00973275 -0.0215885
0.00269195 0.0103818 -0.0226946
3.82798e-05 0.0106216 -0.0230881
-0.00261038 0.0103616 -0.0226329
-0.0048998 0.00969564 -0.0214711
-0.00656999 0.00888004 -0.0199895
-0.0075503 0.00826923 -0.018719
0.00766419 0.00811061 -0.0203387
0.0068802 0.00906811 -0.0223943
0.00524892 0.0103031 -0.024512
0.00286598 0.0112816 -0.0260569
6.19953e-05 0.0116362 -0.0265931
-0.00273476 0.0112537 -0.0259803
-0.00510011 0.0102551 -0.0243692
-0.00671193 0.00900916 -0.0221979
-0.00748068 0.00804346 -0.0200939
0.00663478 0.00690576 -0.0207377
0.00612822 0.00823229 -0.0234858
0.00475563 0.00989089 -0.0260731
0.0026293 0.0111228 -0.0278741
9.20068e-05 0.0115561 -0.0284928
-0.00243613 0.0110882 -0.0277868
-0.00454101 0.00983402 -0.0259117
-0.00589178 0.00816625 -0.0232661
-0.00638373 0.00683599 -0.0204691
0.00408974 0.00424867 -0.0203685
0.00388339 0.00554235 -0.0233849
0.00303236 0.00697177 -0.0258853
0.00169293 0.00802689 -0.0276419
0.000133023 0.00837981 -0.0282376
-0.00141961 0.00799161 -0.0275472
-0.00274206 0.00691544 -0.0257116
-0.0035763 0.00547978 -0.0231529
-0.0037715 0.00418463 -0.020087
-2.33809e-05 3.63149e-05 -0.0198857
-7.8907e-05 0.000296796 -0.0227803
-0.000109889 0.000436395 -0.025084
-6.91216e-06 0.000453068 -0.0265358
0.000185694 0.000460171 -0.027041
0.000378597 0.000435774 -0.0264456
0.000481231 0.000404725 -0.0249131
0.000452788 0.000255701 -0.0225451
0.000399621 -9.72399e-06 -0.0196001
-0.00418454 0.00270498 -0.00535918
-0.00425355 0.00193782 -0.00520581
-0.00433024 0.00131794 -0.00522988
-0.00439716 0.000675956 -0.00530244
-0.00442108 -2.11367e-06 -0.00533223
-0.00439 -0.000679771 -0.00529441
-0.00431598 -0.00132039 -0.00521358
-0.00423233 -0.00193746 -0.00518061
-0.00415671 -0.002699 -0.00532391
-0.00596424 0.00479627 -0.0097769
-0.00609983 0.00363134 -0.00940417
-0.00627854 0.00249869 -0.00950224
-0.00641681 0.001287 -0.00967378
-0.00646638 3.22822e-06 -0.00974654
-0.00640667 -0.00127983 -0.00966004
-0.00625839 -0.00248925 -0.00947413
-0.00606999 -0.00361773 -0.00936026
-0.00592508 -0.0047762 -0.00971438
-0.00712621 0.00611291 -0.0133751
-0.00736278 0.00494985 -0.0133079
-0.0076583 0.00351039 -0.0136258
-0.00789942 0.00183615 -0.013988
-0.0079875 1.44217e-05 -0.0141319
-0.00788782 -0.00180649 -0.0139693
-0.00763527 -0.00347826 -0.0135876
-0.00732861 -0.00491358 -0.0132482
-0.00708127 -0.00607122 -0.0132911
-0.0078588 0.00704961 -0.0163872
-0.00821771 0.00594141 -0.0168721
-0.00870648 0.00434455 -0.0176629
-0.00910634 0.00231262 -0.018345
-0.00925549 3.0749e-05 -0.0186036
-0.0090946 -0.00225036 -0.0183222
-0.00868313 -0.00428005 -0.0176162
-0.00818292 -0.00587339 -0.0167995
-0.00781263 -0.00697704 -0.0162853
-0.00818421 0.00761305 -0.0186724
-0.00877488 0.00663516 -0.0198977
-0.00957197 0.00496917 -0.0213335
-0.0102202 0.00268739 -0.0224488
-0.0104634 5.16036e-05 -0.0228585
-0.0102095 -0.00258359 -0.0224231
-0.00955069 -0.00486363 -0.0212807
-0.0087428 -0.00652686 -0.0198154
-0.008141 -0.00750116 -0.0185568
-0.00790581 0.00759625 -0.0200386
-0.00885191 0.00682836 -0.0220901
-0.010079 0.005219 -0.0242077
-0.0110583 0.00286002 -0.0257635
-0.0114215 7.63665e-05 -0.0263217
-0.0110504 -0.002707 -0.0257362
-0.0100628 -0.00506507 -0.0241514
-0.00882649 -0.00667276 -0.0220018
-0.00787019 -0.00743812 -0.019914
-0.00663633 0.00656245 -0.0204075
-0.0079483 0.00607006 -0.0231463
-0.00959779 0.00472024 -0.0257319
-0.0108322 0.00262021 -0.0275448
-0.011279 0.000104142 -0.0281892
-0.010829 -0.00241214 -0.0275171
-0.00959023 -0.00451254 -0.0256746
-0.00793415 -0.00586226 -0.0230554
-0.00661341 -0.00635346 -0.0202782
-0.00391659 0.00402074 -0.0200217
-0.00519517 0.00382509 -0.0230256
-0.00661411 0.00299236 -0.0255204
-0.0076723 0.00167464 -0.027289
-0.00804201 0.000133168 -0.0279141
-0.00767548 -0.001409 -0.0272616
-0.00661822 -0.00272849 -0.0254631
-0.00519642 -0.00356302 -0.0229343
-0.00391106 -0.00375908 -0.019891
0.000348353 -7.73658e-05 -0.0195334
9.80386e-05 -0.000129438 -0.0224144
-3.61249e-05 -0.000153495 -0.0247165
-5.43655e-05 -4.25975e-05 -0.0261799
-7.0791e-05 0.000160275 -0.0267104
-6.41971e-05 0.000362277 -0.0261528
-5.28734e-05 0.000470912 -0.02466
7.94806e-05 0.000444136 -0.0223237
0.000333631 0.000390359 -0.0194031
0 0 0
0 0 0
0 0 0
0 0 0
0 0 0
0 0 0
0 0 0
0 0 0
0 0 0
0 0 0
0 0 0
0 0 0
0 0 0
0 0 0
0 0 0
0 0 0
0 0 0
0 0 0
0 0 0
0 0 0
0 0 0
0 0 0
0 0 0
0 0 0
0 0 0
0 0 0
0 0 0
0 0 0
0 0 0
0 0 0
0 0 0
0 0 0
0 0 0
0 0 0
0 0 0
0 0 0
0 0 0
0 0 0
0 0 0
0 0 0
0 0 0
0 0 0
0 0 0
0 0 0
0 0 0
0 0 0
0 0 0
0 0 0
0 0 0
0 0 0
0 0 0
0 0 0
0 0 0
0 0 0
0 0 0
0 0 0
0 0 0
0 0 0
0 0 0
0 0 0
0 0 0
0 0 0
0 0 0
0 0 0
0 0 0
0 0 0
0 0 0
0 0 0
0 0 0
0 0 0
0 0 0
0 0 0
0 0 0
0 0 0
0 0 0
0 0 0
0 0 0
0 0 0
0 0 0
0 0 0
0 0 0
0.0051365 0.00513283 -0.0242318
0.00480117 0.0070526 -0.0286638
0.00378518 0.00941135 -0.0330001
0.00222321 0.0113203 -0.0359472
0.000180804 0.0120036 -0.0372061
-0.00186008 0.0113363 -0.0359821
-0.00341967 0.00944115 -0.0330716
-0.00443215 0.00709002 -0.0287745
-0.0047645 0.00517023 -0.0243856
0.00705636 0.00479751 -0.0286632
0.00735041 0.0073467 -0.0381577
0.00633073 0.0128107 -0.0443983
0.00267652 0.0148836 -0.0517836
0.00018498 0.014998 -0.0533532
-0.00230667 0.0148973 -0.0518204
-0.00595371 0.0128396 -0.0444775
-0.00696904 0.00738707 -0.0382816
-0.00666966 0.00483889 -0.0288388
0.0094152 0.0037815 -0.0329989
0.0128146 0.00632706 -0.0443977
0.00633022 0.00632657 -0.1
0.00420049 0.00831866 -0.1
0.000197247 0.00889102 -0.1
-0.0038045 0.00835246 -0.1
-0.00594288 0.00639009 -0.1
-0.0123999 0.00637764 -0.0445357
-0.00900792 0.00383221 -0.0332037
0.0113242 0.00221953 -0.0359452
0.0148876 0.00267293 -0.0517823
0.00832223 0.00419708 -0.1
0.00457801 0.00457475 -0.1
0.000221124 0.00486997 -0.1
-0.0041652 0.00464276 -0.1
-0.00790704 0.00428281 -0.1
-0.0144489 0.00274518 -0.0519579
-0.0108914 0.00227655 -0.0361925
0.0120074 0.000177091 -0.0372033
0.0150021 0.000181937 -0.053351
0.00889401 0.000194946 -0.1
0.00487337 0.000217659 -0.1
0.000236098 0.000233469 -0.1
-0.00434098 0.000390901 -0.1
-0.00849371 0.000316155 -0.1
-0.0144981 0.000226761 -0.0536118
-0.0115728 0.000252058 -0.0375091
0.0113398 -0.0018635 -0.0359783
0.0149015 -0.00231002 -0.0518171
0.00835797 -0.00380329 -0.1
0.00464353 -0.00416595 -0.1
0.000394378 -0.00434438 -0.1
-0.00421177 -0.00421504 -0.1
-0.00747275 -0.00410459 -0.1
-0.0144469 -0.00219986 -0.0522646
-0.0109197 -0.00180805 -0.0363231
0.00944372 -0.00342314 -0.0330671
0.0128424 -0.00595475 -0.0444732
0.00639232 -0.00594511 -0.1
0.00428163 -0.00791255 -0.1
0.000318469 -0.0084967 -0.1
-0.00410117 -0.00747631 -0.1
-0.00563383 -0.00563748 -0.1
-0.0124049 -0.00593694 -0.0449311
-0.0090264 -0.00337923 -0.0334257
0.00709205 -0.00443495 -0.0287702
0.00738848 -0.00697045 -0.0382755
0.00637869 -0.0124026 -0.0445315
0.00274854 -0.0144531 -0.0519546
0.000229808 -0.0145022 -0.0536096
-0.00219627 -0.0144509 -0.0522633
-0.00593327 -0.0124088 -0.0449306
-0.00692519 -0.0069289 -0.038599
-0.00666583 -0.00441462 -0.0291171
0.0051727 -0.00476697 -0.0243814
0.00484169 -0.00667169 -0.0288345
0.00383567 -0.0090105 -0.0331992
0.00227998 -0.0108949 -0.0361888
0.000255773 -0.0115766 -0.0375063
-0.00180436 -0.0109236 -0.0363211
-0.00337554 -0.00903025 -0.0334245
-0.00441096 -0.00666959 -0.0291165
-0.0047392 -0.00474287 -0.0246932
-0.0026852 -0.00268512 -0.00380427
-0.00189373 -0.00271062 -0.00362724
-0.00126827 -0.00277418 -0.00361356
-0.000644645 -0.00283006 -0.00365622
4.20332e-07 -0.00285379 -0.00367867
0.000645901 -0.00283517 -0.00366176
0.00127091 -0.00278431 -0.00362492
0.00189923 -0.00272559 -0.00364513
0.00269637 -0.00270475 -0.00382976
-0.00271064 -0.00189364 -0.00362717
-0.00191072 -0.00191069 -0.00344353
-0.00127369 -0.00195655 -0.00342741
-0.000644913 -0.00200125 -0.00346845
1.43539e-06 -0.00202023 -0.00349031
0.000648231 -0.00200521 -0.0034739
0.00127849 -0.00196438 -0.00343859
0.00191855 -0.00192221 -0.00346114
0.00272438 -0.00190862 -0.0036524
-0.00277414 -0.00126818 -0.00361342
-0.00195654 -0.00127364 -0.00342734
-0.00130557 -0.00130556 -0.00341542
-0.000660987 -0.00133738 -0.00346151
1.64398e-06 -0.00135126 -0.00348545
0.000664783 -0.00134047 -0.00346721
0.00131102 -0.00131164 -0.00342707
0.00196531 -0.00128254 -0.00344566
0.00278928 -0.00127965 -0.00363971
-0.00282996 -0.000644576 -0.00365601
-0.0020012 -0.000644882 -0.00346831
-0.00133736 -0.000660981 -0.00346145
-0.000677875 -0.000677886 -0.003513
1.39201e-06 -0.00068545 -0.00353927
0.000681236 -0.000680103 -0.00351909
0.00134258 -0.00066533 -0.00347387
0.00201007 -0.000651194 -0.00348779
0.00284571 -0.000652588 -0.00368385
-0.00285364 4.56881e-07 -0.00367839
-0.00202015 1.44297e-06 -0.00349011
-0.00135122 1.63624e-06 -0.00348533
-0.000685426 1.3769e-06 -0.00353921
8.62797e-07 8.45519e-07 -0.00356655
0.000687798 1.2191e-07 -0.00354573
0.00135565 -8.01141e-07 -0.00349858
0.00202855 -2.02513e-06 -0.0035108
0.00286943 -3.79844e-06 -0.0037078
-0.00283497 0.000645891 -0.00366141
-0.0020051 0.000648202 -0.00347364
-0.00134041 0.000664748 -0.00346702
-0.000680071 0.000681204 -0.00351897
1.37017e-07 0.000687775 -0.00354566
0.000681055 0.000681044 -0.0035259
0.00134364 0.000664481 -0.00348108
0.00201262 0.000647949 -0.00349548
0.0028503 0.000645854 -0.00369224
-0.00278407 0.00127084 -0.00362451
-0.00196424 0.0012784 -0.00343826
-0.00131157 0.00131095 -0.00342682
-0.000665296 0.00134252 -0.00347368
-7.93405e-07 0.00135561 -0.00349846
0.000664475 0.00134362 -0.00348101
0.00131316 0.00131317 -0.00344165
0.00197039 0.00128183 -0.00346117
0.0027984 0.0012756 -0.00365656
-0.00272532 0.00189907 -0.00364464
-0.00192205 0.0019184 -0.00346074
-0.00128246 0.00196517 -0.00344533
-0.000651165 0.00200996 -0.00348752