# vtk DataFile Version 3.0
vtk output at time 1
ASCII
DATASET UNSTRUCTURED_GRID
POINTS 1331 float
0 0 0 1 0 0 1 1 0 
0 1 0 0.0049636 0.00496299 0.984601 0.995394 0.0049914 0.984428 
0.995427 0.995426 0.984102 0.00499198 0.995393 0.984429 0.1 0 0 
0.2 0 0 0.3 0 0 0.4 0 0 
0.5 0 0 0.6 0 0 0.7 0 0 
0.8 0 0 0.9 0 0 1.00422 -0.00423671 0.0931452 
1.00582 -0.00584455 0.189075 1.00704 -0.00704583 0.285948 1.00778 -0.00776085 0.383461 
1.00809 -0.00802803 0.481835 1.00775 -0.00763792 0.581319 1.00641 -0.00623186 0.681941 
1.00372 -0.00347051 0.783226 0.999736 0.000581006 0.884217 0.89555 0.00535063 0.980605 
0.795911 0.00676261 0.977717 0.696723 0.0085896 0.975714 0.598218 0.0101402 0.974317 
0.500178 0.010743 0.973842 0.402138 0.0101249 0.974344 0.303633 0.00856174 0.97577 
0.204445 0.00672767 0.977806 0.104806 0.00531591 0.980733 0.00057472 0.000574212 0.884391 
-0.00345582 -0.00345621 0.783401 -0.00619891 -0.00619919 0.682113 -0.0075915 -0.00759168 0.581484 
-0.00797359 -0.00797368 0.481987 -0.00770353 -0.00770356 0.383594 -0.00699046 -0.00699045 0.286057 
-0.00579694 -0.00579691 0.189156 -0.00420298 -0.00420295 0.0931937 1 0.1 0 
1 0.2 0 1 0.3 0 1 0.4 0 
1 0.5 0 1 0.6 0 1 0.7 0 
1 0.8 0 1 0.9 0 1.00426 1.00426 0.0930834 
1.00587 1.00587 0.188964 1.0071 1.0071 0.285788 1.00785 1.00785 0.383252 
1.00816 1.00816 0.48158 1.00783 1.00783 0.581027 1.00648 1.00648 0.681625 
1.00378 1.00378 0.7829 0.999789 0.999788 0.88389 0.995071 0.89558 0.98026 
0.993657 0.795946 0.977361 0.991824 0.696764 0.975353 0.990275 0.598274 0.973967 
0.989676 0.500234 0.97352 0.99029 0.40219 0.974056 0.991837 0.303671 0.975521 
0.993651 0.204475 0.977589 0.995049 0.104834 0.98054 0.9 1 0 
0.8 1 0 0.7 1 0 0.6 1 0 
0.5 1 0 0.4 1 0 0.3 1 0 
0.2 1 0 0.1 1 0 -0.00423663 1.00422 0.0931454 
-0.00584442 1.00582 0.189075 -0.00704566 1.00704 0.285948 -0.00776062 1.00778 0.383462 
-0.00802773 1.00809 0.481835 -0.00763754 1.00775 0.58132 -0.00623141 1.00641 0.681942 
-0.00346999 1.00372 0.783227 0.000581566 0.999735 0.884218 0.104834 0.995048 0.980541 
0.204476 0.99365 0.977589 0.303672 0.991837 0.975521 0.40219 0.990289 0.974057 
0.500234 0.989676 0.973521 0.598274 0.990274 0.973968 0.696764 0.991823 0.975354 
0.795947 0.993656 0.977361 0.895581 0.99507 0.98026 0 0.9 0 
0 0.8 0 0 0.7 0 0 0.6 0 
0 0.5 0 0 0.4 0 0 0.3 0 
0 0.2 0 0 0.1 0 0.00531655 0.104806 0.980734 
0.00672831 0.204444 0.977806 0.00856239 0.303632 0.97577 0.0101255 0.402137 0.974344 
0.0107435 0.500177 0.973843 0.0101406 0.598217 0.974317 0.00858998 0.696722 0.975715 
0.00676305 0.795911 0.977718 0.00535116 0.895549 0.980606 0.0973032 -0.00415307 0.0946809 
0.198064 -0.00422869 0.094824 0.298681 -0.00431232 0.094791 0.399321 -0.00438632 0.0947102 
0.499998 -0.00441736 0.0946725 0.600676 -0.00439339 0.0947023 0.701317 -0.00432642 0.0947749 
0.801936 -0.00424966 0.0947992 0.902703 -0.00418058 0.0946461 0.0952276 -0.0059201 0.190294 
0.196385 -0.006065 0.190648 0.297513 -0.00625336 0.190534 0.398721 -0.00640159 0.190348 
0.500003 -0.00646124 0.190262 0.601286 -0.00641161 0.190335 0.702497 -0.00627327 0.190506 
0.803628 -0.00609449 0.190605 0.904792 -0.00595881 0.190233 0.0939336 -0.00707561 0.286721 
0.19509 -0.00732291 0.286764 0.296524 -0.00762951 0.286424 0.398195 -0.00788199 0.286043 
0.500014 -0.0079816 0.285881 0.601835 -0.00789345 0.286024 0.703508 -0.00765226 0.286387 
0.804946 -0.00735668 0.286705 0.906108 -0.00712003 0.286638 0.0930284 -0.00780672 0.383729 
0.194131 -0.00817693 0.383216 0.295723 -0.00867702 0.382399 0.397751 -0.0090884 0.381694 
0.50003 -0.00924921 0.381413 0.602311 -0.00909998 0.381672 0.704341 -0.00870006 0.382354 
0.805936 -0.00821128 0.383144 0.907043 -0.00785233 0.383629 0.0925048 -0.00813519 0.48146 
0.193478 -0.0087367 0.480203 0.29514 -0.00954432 0.478739 0.397418 -0.0102031 0.477597 
0.500051 -0.0104568 0.477162 0.602685 -0.0102135 0.477572 0.704965 -0.00956524 0.478687 
0.806629 -0.00876831 0.480122 0.907606 -0.00817783 0.481346 0.0925679 -0.00786507 0.580104 
0.193332 -0.00882054 0.578019 0.294938 -0.0100563 0.575871 0.397294 -0.0110438 0.574288 
0.500076 -0.011415 0.573703 0.602857 -0.0110515 0.574261 0.705214 -0.0100721 0.575816 
0.806822 -0.00884547 0.577932 0.907588 -0.00790016 0.579981 0.0936514 -0.00661022 0.67974 
0.194142 -0.00792945 0.676966 0.29549 -0.00958455 0.67435 0.397588 -0.0108235 0.672509 
0.500103 -0.0112738 0.671838 0.602618 -0.0108264 0.672482 0.704716 -0.00959168 0.674294 
0.806064 -0.00794318 0.676877 0.906555 -0.00663275 0.679612 0.0962424 -0.00391221 0.780126 
0.196438 -0.00519602 0.777087 0.297272 -0.00661686 0.774561 0.39859 -0.0076739 0.772765 
0.500132 -0.00804047 0.772114 0.601673 -0.00767056 0.772739 0.702989 -0.00661254 0.774505 
0.803821 -0.00519462 0.776997 0.904016 -0.00391766 0.779997 0.100386 0.000325181 0.880613 
0.20044 7.11351e-05 0.877696 0.300469 -6.02599e-05 0.875364 0.400361 -6.96962e-05 0.873875 
0.500158 -7.51876e-05 0.873319 0.599955 -6.01541e-05 0.873848 0.699845 -4.39593e-05 0.875309 
0.799871 8.92904e-05 0.877607 0.899924 0.000339515 0.880484 1.00417 0.0972799 0.094643 
1.00425 0.198046 0.0947847 1.00434 0.298667 0.0947495 1.00441 0.399312 0.0946664 
1.00445 0.499993 0.0946266 1.00442 0.600676 0.094655 1.00436 0.701323 0.0947268 
1.00428 0.801949 0.0947504 1.0042 0.902724 0.0945966 1.00596 0.0951885 0.19022 
1.00611 0.196355 0.190573 1.0063 0.29749 0.190455 1.00645 0.398706 0.190264 
1.00651 0.499996 0.190173 1.00646 0.601287 0.190242 1.00632 0.702508 0.190411 
1.00614 0.803651 0.190507 1.006 0.904828 0.190131 1.00713 0.0938864 0.286614 
1.00739 0.195052 0.286653 1.0077 0.296495 0.286307 1.00796 0.398174 0.285918 
1.00806 0.500004 0.285747 1.00797 0.601837 0.285885 1.00772 0.703523 0.286242 
1.00742 0.804975 0.286556 1.00718 0.906152 0.286485 1.00789 0.0929781 0.383593 
1.00827 0.194088 0.383073 1.00878 0.295689 0.382246 1.00919 0.397727 0.381528 
1.00936 0.500018 0.381234 1.00921 0.602313 0.381482 1.00881 0.70436 0.382157 
1.00831 0.805972 0.382943 1.00795 0.907094 0.383425 1.00826 0.0924556 0.481301 
1.00887 0.193435 0.480032 1.00969 0.295103 0.478552 1.01035 0.39739 0.477392 
1.01061 0.500037 0.476938 1.01037 0.602688 0.477332 1.00972 0.704988 0.478438 
1.00892 0.806671 0.47987 1.00832 0.907664 0.481094 1.00803 0.0925247 0.579927 
1.009 0.193292 0.577826 1.01024 0.294902 0.575658 1.01124 0.397265 0.574049 
1.01162 0.50006 0.573437 1.01127 0.602861 0.573974 1.01029 0.705242 0.575519 
1.00906 0.80687 0.577635 1.0081 0.907653 0.579689 1.00683 0.0936197 0.679552 
1.00816 0.194111 0.676759 1.00982 0.29546 0.674118 1.01108 0.397563 0.672245 
1.01154 0.500089 0.67154 1.01111 0.602624 0.67216 1.00988 0.704748 0.67396 
1.00822 0.806118 0.676545 1.0069 0.906623 0.67929 1.00418 0.0962274 0.779933 
1.00547 0.196422 0.776872 1.00691 0.297256 0.774318 1.00798 0.398577 0.772486 
1.00837 0.500129 0.771798 1.00802 0.601688 0.772393 1.00696 0.703026 0.774148 
1.00553 0.803876 0.776645 1.00424 0.904081 0.779658 0.999992 0.100391 0.880419 
1.00026 0.200445 0.877479 1.00041 0.300475 0.875116 1.00043 0.400374 0.873588 
1.00046 0.50018 0.872995 1.00045 0.599987 0.8735 1.00044 0.699885 0.874949 
1.0003 0.799918 0.877248 1.00004 0.899975 0.880139 0.902724 1.0042 0.0945966 
0.801949 1.00428 0.0947504 0.701323 1.00436 0.0947268 0.600676 1.00442 0.0946551 
0.499993 1.00445 0.0946267 0.399312 1.00441 0.0946665 0.298667 1.00434 0.0947496 
0.198046 1.00425 0.0947848 0.09728 1.00417 0.0946431 0.904828 1.006 0.190131 
0.803651 1.00614 0.190507 0.702508 1.00632 0.190411 0.601287 1.00646 0.190243 
0.499996 1.00651 0.190173 0.398706 1.00645 0.190264 0.29749 1.0063 0.190455 
0.196355 1.00611 0.190573 0.0951886 1.00596 0.19022 0.906152 1.00718 0.286485 
0.804975 1.00742 0.286556 0.703523 1.00772 0.286242 0.601837 1.00797 0.285885 
0.500004 1.00806 0.285748 0.398174 1.00796 0.285918 0.296495 1.0077 0.286308 
0.195052 1.00739 0.286653 0.0938865 1.00713 0.286614 0.907094 1.00795 0.383425 
0.805972 1.00831 0.382944 0.70436 1.00881 0.382157 0.602313 1.00921 0.381482 
0.500019 1.00936 0.381234 0.397727 1.00919 0.381528 0.295689 1.00878 0.382246 
0.194089 1.00827 0.383073 0.0929783 1.00789 0.383594 0.907664 1.00832 0.481095 
0.806671 1.00892 0.479871 0.704988 1.00972 0.478438 0.602688 1.01037 0.477332 
0.500037 1.01061 0.476938 0.397391 1.01035 0.477392 0.295103 1.00969 0.478553 
0.193435 1.00887 0.480033 0.0924559 1.00826 0.481301 0.907653 1.0081 0.579689 
0.806871 1.00906 0.577635 0.705242 1.01029 0.575519 0.602862 1.01127 0.573974 
0.50006 1.01162 0.573438 0.397266 1.01124 0.574049 0.294903 1.01024 0.575659 
0.193293 1.009 0.577827 0.092525 1.00803 0.579928 0.906624 1.0069 0.67929 
0.806118 1.00822 0.676545 0.704748 1.00988 0.67396 0.602625 1.01111 0.67216 
0.500089 1.01154 0.671541 0.397563 1.01108 0.672246 0.29546 1.00982 0.674118 
0.194111 1.00816 0.67676 0.0936201 1.00683 0.679553 0.904082 1.00424 0.779658 
0.803876 1.00553 0.776645 0.703026 1.00696 0.774148 0.601688 1.00802 0.772394 
0.500129 1.00837 0.771798 0.398577 1.00798 0.772486 0.297256 1.00691 0.774318 
0.196423 1.00547 0.776873 0.0962279 1.00418 0.779934 0.899975 1.00004 0.880139 
0.799919 1.0003 0.877249 0.699886 1.00044 0.874949 0.599988 1.00045 0.8735 
0.500181 1.00046 0.872996 0.400374 1.00043 0.873588 0.300476 1.0004 0.875116 
0.200446 1.00026 0.87748 0.100392 0.999991 0.88042 -0.00418049 0.902703 0.0946463 
-0.00424959 0.801936 0.0947993 -0.00432635 0.701317 0.094775 -0.00439333 0.600676 0.0947024 
-0.00441731 0.499998 0.0946726 -0.00438628 0.399321 0.0947103 -0.0043123 0.298681 0.0947911 
-0.00422868 0.198064 0.0948241 -0.00415308 0.0973032 0.0946809 -0.00595868 0.904792 0.190233 
-0.00609438 0.803628 0.190605 -0.00627316 0.702497 0.190507 -0.00641152 0.601286 0.190335 
-0.00646116 0.500003 0.190262 -0.00640153 0.398721 0.190348 -0.00625332 0.297513 0.190534 
[...]
POINT_DATA 1331
VECTORS displacement float
0 0 0
0 0 0
0 0 0
0 0 0
0.0049636 0.00496299 -0.0153991
-0.00460619 0.0049914 -0.0155715
-0.00457328 -0.00457388 -0.0158981
0.00499198 -0.00460674 -0.0155708
0 0 0
0 0 0
0 0 0
0 0 0
0 0 0
0 0 0
0 0 0
0 0 0
0 0 0
0.00421992 -0.00423671 -0.00685479
0.00582411 -0.00584455 -0.0109251
0.00703826 -0.00704583 -0.0140523
0.00778072 -0.00776085 -0.0165389
0.00808849 -0.00802803 -0.0181653
0.00775094 -0.00763792 -0.0186811
0.00640768 -0.00623186 -0.0180591
0.00371597 -0.00347051 -0.0167737
-0.000264271 0.000581006 -0.0157828
-0.00445008 0.00535063 -0.0193946
-0.0040889 0.00676261 -0.0222827
-0.00327715 0.0085896 -0.0242856
-0.00178213 0.0101402 -0.0256831
0.000177801 0.010743 -0.0261576
0.00213774 0.0101249 -0.0256565
0.00363307 0.00856174 -0.02423
0.00444479 0.00672767 -0.0221939
0.00480634 0.00531591 -0.0192666
0.00057472 0.000574212 -0.015609
-0.00345582 -0.00345621 -0.0165991
-0.00619891 -0.00619919 -0.0178868
-0.0075915 -0.00759168 -0.0185158
-0.00797359 -0.00797368 -0.018013
-0.00770353 -0.00770356 -0.0164056
-0.00699046 -0.00699045 -0.0139432
-0.00579694 -0.00579691 -0.0108439
-0.00420298 -0.00420295 -0.00680626
0 0 0
0 0 0
0 0 0
0 0 0
0 0 0
0 0 0
0 0 0
0 0 0
0 0 0
0.00425622 0.00425625 -0.00691661
0.00587368 0.00587371 -0.011036
0.00709709 0.00709711 -0.0142124
0.00784612 0.00784609 -0.0167481
0.00815966 0.00815957 -0.0184201
0.00782657 0.00782639 -0.018973
0.00648384 0.00648357 -0.0183752
0.00378492 0.00378454 -0.0171
-0.000211346 -0.000211834 -0.01611
-0.00492925 -0.00442 -0.0197396
-0.00634336 -0.00405404 -0.0226394
-0.00817585 -0.00323646 -0.0246466
-0.00972528 -0.00172626 -0.0260327
-0.0103235 0.000233739 -0.02648
-0.00970993 0.00218978 -0.0259435
-0.00816264 0.00367089 -0.0244793
-0.00634941 0.00447533 -0.0224114
-0.00495134 0.00483383 -0.0194601
0 0 0
0 0 0
0 0 0
0 0 0
0 0 0
0 0 0
0 0 0
0 0 0
0 0 0
-0.00423663 0.00421983 -0.00685461
-0.00584442 0.00582399 -0.0109247
-0.00704566 0.00703809 -0.0140519
-0.00776062 0.00778049 -0.0165383
-0.00802773 0.00808818 -0.0181646
-0.00763754 0.00775056 -0.0186803
-0.00623141 0.00640723 -0.0180584
-0.00346999 0.00371546 -0.0167729
0.000581566 -0.000264802 -0.0157821
0.00483441 -0.00495193 -0.0194594
0.00447592 -0.00635002 -0.0224107
0.0036715 -0.00816329 -0.0244786
0.00219041 -0.00971062 -0.0259429
0.000234372 -0.0103242 -0.0264795
-0.00172564 -0.00972599 -0.0260323
-0.00323585 -0.00817654 -0.0246463
-0.00405344 -0.00634401 -0.0226392
-0.0044194 -0.00492988 -0.0197395
0 0 0
0 0 0
0 0 0
0 0 0
0 0 0
0 0 0
0 0 0
0 0 0
0 0 0
0.00531655 0.00480573 -0.0192665
0.00672831 0.00444417 -0.0221937
0.00856239 0.00363244 -0.0242297
0.0101255 0.00213707 -0.0256561
0.0107435 0.000177113 -0.0261571
0.0101406 -0.00178279 -0.0256826
0.00858998 -0.00327776 -0.024285
0.00676305 -0.00408946 -0.0222821
0.00535116 -0.00445063 -0.0193939
-0.00269678 -0.00415307 -0.00531906
-0.00193592 -0.00422869 -0.00517596
-0.00131937 -0.00431232 -0.00520897
-0.000679238 -0.00438632 -0.00528976
-2.06861e-06 -0.00441736 -0.00532752
0.000675505 -0.00439339 -0.00529768
0.00131699 -0.00432642 -0.00522506
0.00193631 -0.00424966 -0.00520084
0.0027027 -0.00418058 -0.00535388
-0.00477237 -0.0059201 -0.00970565
-0.00361492 -0.006065 -0.00935195
-0.00248738 -0.00625336 -0.00946584
-0.00127889 -0.00640159 -0.00965167
3.22739e-06 -0.00646124 -0.00973806
0.00128604 -0.00641161 -0.00966521
0.00249675 -0.00627327 -0.00949356
0.0036284 -0.00609449 -0.00939527
0.00479223 -0.00595881 -0.00976735
-0.00606645 -0.00707561 -0.0132791
-0.00490985 -0.00732291 -0.0132364
-0.00347572 -0.00762951 -0.0135757
-0.00180525 -0.00788199 -0.0139572
1.43096e-05 -0.0079816 -0.0141195
0.00183467 -0.00789345 -0.0139755
0.00350756 -0.00765226 -0.0136133
0.00494573 -0.00735668 -0.0132953
0.00610766 -0.00712003 -0.013362
-0.00697157 -0.00780672 -0.0162706
-0.00586897 -0.00817693 -0.0167843
-0.00427704 -0.00867702 -0.0176005
-0.00224895 -0.0090884 -0.018306
3.0474e-05 -0.00924921 -0.0185871
0.00231063 -0.00909998 -0.0183284
0.00434088 -0.00870006 -0.0176464
0.00593624 -0.00821128 -0.0168559
0.0070433 -0.00785233 -0.016371
-0.00749519 -0.00813519 -0.0185399
-0.00652194 -0.0087367 -0.0197972
-0.00486032 -0.00954432 -0.0212613
-0.00258215 -0.0102031 -0.0224028
5.11237e-05 -0.0104568 -0.0228378
0.00268495 -0.0102135 -0.0224281
0.00496475 -0.00956524 -0.0213131
0.006629 -0.00876831 -0.0198781
0.00760576 -0.00817783 -0.0186538
-0.0074321 -0.00786507 -0.0198958
-0.0066677 -0.00882054 -0.0219812
-0.00506179 -0.0100563 -0.0241288
-0.00270577 -0.0110438 -0.0257124
7.56467e-05 -0.011415 -0.0262974
0.00285729 -0.0110515 -0.0257391
0.00521407 -0.0100721 -0.024184
0.00682151 -0.00884547 -0.022068
0.00758834 -0.00790016 -0.0200186
-0.00634857 -0.00661022 -0.02026
-0.0058581 -0.00792945 -0.0230338
-0.0045101 -0.00958455 -0.0256502
-0.00241158 -0.0108235 -0.0274911
0.000103134 -0.0112738 -0.0281625
0.00261758 -0.0108264 -0.0275181
0.00471557 -0.00959168 -0.0257064
0.00606354 -0.00794318 -0.0231233
0.00655512 -0.00663275 -0.0203876
-0.00375763 -0.00391221 -0.0198738
-0.00356171 -0.00519602 -0.0229132
-0.00272805 -0.00661686 -0.0254388
-0.00140961 -0.0076739 -0.0272345
0.000131815 -0.00804047 -0.0278858
0.00167249 -0.00767056 -0.0272614
0.00298909 -0.00661254 -0.025495
0.00382089 -0.00519462 -0.0230031
0.0040164 -0.00391766 -0.0200029
0.000385747 0.000325181 -0.0193869
0.000440475 7.11351e-05 -0.0223035
0.000468731 -6.02599e-05 -0.0246358
0.000360964 -6.96962e-05 -0.0261252
0.000158437 -7.51876e-05 -0.0266811
-4.48788e-05 -6.01541e-05 -0.0261518
-0.0001547 -4.39593e-05 -0.0246915
-0.000129007 8.92904e-05 -0.0223929
-7.59626e-05 0.000339515 -0.0195156
0.0041747 -0.00272007 -0.00535699
0.00425373 -0.00195359 -0.00521528
0.00433954 -0.00133272 -0.00525047
0.00441494 -0.000688429 -0.0053336
0.00444672 -6.82775e-06 -0.00537337
0.00442285 0.000675696 -0.00534498
0.00435523 0.00132283 -0.00527322
0.00427691 0.00194888 -0.00524959
0.00420474 0.00272423 -0.00540342
0.00595636 -0.00481151 -0.00978028
0.00610694 -0.00364528 -0.00942729
0.00629894 -0.00251025 -0.00954518
0.00644926 -0.00129443 -0.00973576
0.0065098 -4.4352e-06 -0.00982668
0.0064599 0.0012872 -0.00975752
0.00631999 0.00250787 -0.00958861
0.00613796 0.00365091 -0.00949265
0.00599689 0.00482825 -0.00986907
0.00713376 -0.00611364 -0.0133864
0.00738834 -0.0049483 -0.0133469
0.00769973 -0.00350536 -0.0136927
0.00795517 -0.0018256 -0.0140822
0.0080562 4.43654e-06 -0.0142526
0.00796788 0.00183679 -0.0141153
0.00772466 0.00352301 -0.013758
0.00742487 0.00497545 -0.0134439
0.00718132 0.00615199 -0.0135152
0.00789485 -0.00702195 -0.0164066
0.00827316 -0.00591157 -0.0169273
0.00877919 -0.00431118 -0.0177541
0.00919492 -0.0022732 -0.0184723
0.00935854 1.84652e-05 -0.0187662
0.00921011 0.0023134 -0.018518
0.00880837 0.00436005 -0.0178431
0.0083148 0.00597188 -0.0170566
0.00794821 0.00709435 -0.0165751
0.008261 -0.00754438 -0.0186994
0.00887118 -0.00656525 -0.019968
0.00968621 -0.00489686 -0.0214477
0.0103518 -0.00260955 -0.0226081
0.0106115 3.6875e-05 -0.0230624
0.0103714 0.00268818 -0.0226682
0.0097221 0.00498782 -0.021562
0.00891961 0.00667099 -0.0201295
0.00832031 0.00766359 -0.0189056
0.00803482 -0.00747532 -0.0200727
0.00899934 -0.00670762 -0.0221736
0.0102444 -0.00509775 -0.024342
0.0112426 -0.00273468 -0.0259512
0.0116249 5.98287e-05 -0.0265628
0.0112697 0.00286137 -0.0260259
0.0102908 0.00524154 -0.0244811
0.00905639 0.00687032 -0.0223648
0.0080999 0.00765286 -0.0203113
0.00682811 -0.00638032 -0.0204479
0.00815651 -0.00588916 -0.0232406
0.00982294 -0.00454023 -0.0258824
0.0110771 -0.00243741 -0.027755
0.0115449 8.8935e-05 -0.0284595
0.0111107 0.00262422 -0.0278401
0.00987806 0.00474795 -0.0260398
0.00822058 0.00611811 -0.0234549
0.00689599 0.00662354 -0.0207101
0.00417998 -0.00377261 -0.0200668
0.00547328 -0.00357753 -0.0231278
0.00690768 -0.00274423 -0.0256824
0.00798341 -0.00142295 -0.0275143
0.00837142 0.000128821 -0.0282024
0.00801799 0.00168776 -0.0276069
0.00696286 0.00302573 -0.0258522
0.00553457 0.00387547 -0.0233547
0.00424291 0.00408151 -0.0203422
-8.06142e-06 0.0003912 -0.019581
0.000257146 0.000445302 -0.022521
0.000405171 0.000475288 -0.0248842
0.00043413 0.000373603 -0.0264121
0.000457238 0.000180098 -0.0270049
0.00045167 -1.3027e-05 -0.0265004
0.000437343 -0.000114769 -0.0250515
0.000298881 -8.18291e-05 -0.0227515
3.84713e-05 -2.51306e-05 -0.0198607
0.0027242 0.00420475 -0.00540341
0.00194885 0.0042769 -0.00524957
0.00132281 0.00435521 -0.00527318
0.000675675 0.00442281 -0.00534493
-6.84222e-06 0.00444668 -0.00537329
-0.000688435 0.00441488 -0.00533351
-0.00133271 0.00433947 -0.00525037
-0.00195357 0.00425365 -0.00521516
-0.00272002 0.00417462 -0.00535686
0.00482822 0.00599689 -0.00986905
0.00365088 0.00613794 -0.0094926
0.00250785 0.00631995 -0.00958853
0.00128719 0.00645984 -0.00975741
-4.43757e-06 0.00650972 -0.00982654
-0.00129442 0.00644917 -0.00973559
-0.00251022 0.00629884 -0.00954498
-0.00364522 0.00610682 -0.00942706
-0.00481142 0.00595623 -0.00978002
0.00615198 0.0071813 -0.0135152
0.00497544 0.00742482 -0.0134438
0.00352301 0.00772459 -0.0137579
0.0018368 0.00796778 -0.0141151
4.4658e-06 0.00805608 -0.0142523
-0.00182555 0.00795503 -0.014082
-0.00350528 0.00769957 -0.0136924
-0.0049482 0.00738818 -0.0133466
-0.0061135 0.00713358 -0.013386
0.00709438 0.00794815 -0.016575
0.00597192 0.00831471 -0.0170564
0.0043601 0.00880824 -0.0178429
0.00231346 0.00920996 -0.0185178
1.85422e-05 0.00935837 -0.0187659
-0.0022731 0.00919473 -0.0184719
-0.00431105 0.00877898 -0.0177537
-0.0059114 0.00827294 -0.0169269
-0.00702175 0.00789462 -0.0164061
0.00766368 0.00832018 -0.0189055
0.00667109 0.00891945 -0.0201294
0.00498792 0.00972191 -0.0215618
0.0026883 0.0103711 -0.0226679
3.70135e-05 0.0106112 -0.023062
-0.00260938 0.0103515 -0.0226077
-0.00489666 0.00968593 -0.0214472
-0.00656501 0.00887089 -0.0199675
-0.00754411 0.0082607 -0.0186989
0.00765304 0.00809969 -0.0203112
0.00687049 0.00905615 -0.0223647
0.00524172 0.0102905 -0.0244808
0.00286156 0.0112694 -0.0260255
6.0041e-05 0.0116246 -0.0265624
-0.00273444 0.0112423 -0.0259507
-0.00509746 0.010244 -0.0243415
-0.00670729 0.00899896 -0.022173
-0.00747496 0.00803444 -0.0200721
0.0066238 0.00689568 -0.02071
0.00611838 0.00822025 -0.0234547
0.00474822 0.00987769 -0.0260395
0.0026245 0.0111103 -0.0278398
8.92338e-05 0.0115445 -0.028459
-0.00243708 0.0110766 -0.0277545
-0.00453985 0.00982247 -0.0258818
-0.00588874 0.00815604 -0.0232399
-0.00637988 0.00682765 -0.0204472
0.00408188 0.0042425 -0.0203421
0.00387584 0.00553413 -0.0233545
0.00302611 0.00696239 -0.0258519
0.00168815 0.00801749 -0.0276065
0.000129222 0.00837088 -0.0282019
-0.00142252 0.00798285 -0.0275137
-0.00274377 0.00690712 -0.0256817
-0.00357704 0.00547273 -0.0231271
-0.00377209 0.00417946 -0.0200661
-2.46452e-05 3.79531e-05 -0.0198606
-8.13433e-05 0.000298332 -0.0227513
-0.000114278 0.000436763 -0.0250512
-1.25265e-05 0.00045106 -0.0264999
0.000180614 0.000456604 -0.0270044
0.000374139 0.000433489 -0.0264115
0.00047584 0.000404546 -0.0248835
0.000445862 0.000256551 -0.0225203
0.000391762 -8.62158e-06 -0.0195802
-0.00418049 0.00270265 -0.00535375
-0.00424959 0.00193628 -0.00520072
-0.00432635 0.00131698 -0.00522495
-0.00439333 0.000675511 -0.00529759
-0.00441731 -2.05411e-06 -0.00532745
-0.00438628 -0.000679217 -0.0052897
-0.0043123 -0.00131935 -0.00520893
-0.00422868 -0.00193589 -0.00517594
-0.00415308 -0.00269675 -0.00531906
-0.00595868 0.00479213 -0.00976709
-0.00609438 0.00362834 -0.00939505
-0.00627316 0.00249672 -0.00949336
-0.00641152 0.00128603 -0.00966504
-0.00646116 3.22986e-06 -0.00973791
-0.00640153 -0.00127887 -0.00965155
-0.00625332 -0.00248736 -0.00946576
-0.00606498 -0.00361489 -0.0093519
-0.00592011 -0.00477234 -0.00970563
-0.00711986 0.00610752 -0.0133616
-0.00735651 0.00494562 -0.0132949
-0.00765211 0.00350748 -0.013613
-0.00789331 0.00183462 -0.0139753
-0.00798148 1.42806e-05 -0.0141193
-0.00788189 -0.00180526 -0.013957
-0.00762944 -0.00347572 -0.0135755
-0.00732286 -0.00490984 -0.0132363
-0.00707559 -0.00606644 -0.0132791
-0.0078521 0.0070431 -0.0163706
-0.00821106 0.00593607 -0.0168554
-0.00869985 0.00434075 -0.017646
-0.00909978 0.00231053 -0.018328
-0.00924903 3.03975e-05 -0.0185868
-0.00908825 -0.00224901 -0.0183058
-0.00867689 -0.00427708 -0.0176003
-0.00817683 -0.00586901 -0.0167842
-0.00780665 -0.00697161 -0.0162705
-0.00817754 0.00760549 -0.0186532
-0.00876801 0.00662876 -0.0198776
-0.00956495 0.00496454 -0.0213126
-0.0102132 0.00268478 -0.0224277
-0.0104566 5.09864e-05 -0.0228375
-0.0102028 -0.00258227 -0.0224026
-0.00954413 -0.00486042 -0.0212611
-0.00873654 -0.00652204 -0.019797
-0.00813506 -0.00749529 -0.0185398
-0.00789978 0.00758799 -0.020018
-0.00884508 0.00682118 -0.0220674
-0.0100717 0.00521378 -0.0241834
-0.0110511 0.00285704 -0.0257386
-0.0114146 7.54363e-05 -0.026297
-0.0110435 -0.00270596 -0.025712
-0.010056 -0.00506197 -0.0241285
-0.0088203 -0.00666788 -0.021981
-0.00786486 -0.00743228 -0.0198957
-0.00663229 0.00655468 -0.0203869
-0.0079427 0.00606312 -0.0231226
-0.00959119 0.00471519 -0.0257058
-0.0108259 0.00261724 -0.0275175
-0.0112734 0.000102836 -0.028162
-0.0108231 -0.00241186 -0.0274907
-0.00958418 -0.00451037 -0.0256499
-0.00792911 -0.00585838 -0.0230336
-0.00660991 -0.00634885 -0.0202599
-0.00391715 0.00401589 -0.0200022
-0.00519409 0.00382039 -0.0230025
-0.00661198 0.00298861 -0.0254944
-0.00767 0.00167206 -0.0272608
-0.00803994 0.000131406 -0.0278853
-0.00767341 -0.00141 -0.0272341
-0.00661639 -0.00272844 -0.0254385
-0.00519558 -0.0035621 -0.022913
-0.0039118 -0.00375802 -0.0198737
0.000340052 -7.64933e-05 -0.0195149
8.98118e-05 -0.000129537 -0.0223922
-4.34532e-05 -0.000155245 -0.0246909
-5.96247e-05 -4.54454e-05 -0.0261513
-7.46213e-05 0.000157878 -0.0266806
-6.91261e-05 0.000360428 -0.0261248
-5.97008e-05 0.000468212 -0.0246355
7.16786e-05 0.000439966 -0.0223033
0.000325706 0.000385241 -0.0193868
0 0 0
0 0 0
0 0 0
0 0 0
0 0 0
0 0 0
0 0 0
0 0 0
0 0 0
0 0 0
0 0 0
0 0 0
0 0 0
0 0 0
0 0 0
0 0 0
0 0 0
0 0 0
0 0 0
0 0 0
0 0 0
0 0 0
0 0 0
0 0 0
0 0 0
0 0 0
0 0 0
0 0 0
0 0 0
0 0 0
0 0 0
0 0 0
0 0 0
0 0 0
0 0 0
0 0 0
0 0 0
0 0 0
0 0 0
0 0 0
0 0 0
0 0 0
0 0 0
0 0 0
0 0 0
0 0 0
0 0 0
0 0 0
0 0 0
0 0 0
0 0 0
0 0 0
0 0 0
0 0 0
0 0 0
0 0 0
0 0 0
0 0 0
0 0 0
0 0 0
0 0 0
0 0 0
0 0 0
0 0 0
0 0 0
0 0 0
0 0 0
0 0 0
0 0 0
0 0 0
0 0 0
0 0 0
0 0 0
0 0 0
0 0 0
0 0 0
0 0 0
0 0 0
0 0 0
0 0 0
0 0 0
0.00512046 0.00511983 -0.0242073
0.00478707 0.00703551 -0.0286322
0.00377547 0.00939436 -0.0329622
0.00221721 0.0113104 -0.035907
0.000174977 0.0119986 -0.0371642
-0.00186553 0.0113247 -0.0359391
-0.00342068 0.00942112 -0.0330288
-0.00442791 0.00707007 -0.0287372
-0.00475799 0.00515517 -0.0243549
0.00703615 0.00478644 -0.0286321
0.00732807 0.00732743 -0.0381087
0.00631235 0.0127862 -0.0443438
0.00266654 0.0148774 -0.0517316
0.000179693 0.0150063 -0.0533107
-0.00230683 0.0148897 -0.0517641
-0.00594444 0.0128111 -0.0444157
-0.0069552 0.00736456 -0.0382239
-0.00665829 0.00482606 -0.0288001
0.00939501 0.00377483 -0.032962
0.0127868 0.0063117 -0.0443438
0.00629681 0.00629613 -0.1
0.00415735 0.00830968 -0.1
0.000194038 0.00888751 -0.1
-0.00376493 0.00834118 -0.1
-0.00591498 0.00635525 -0.1
-0.0123794 0.00635979 -0.0444723
-0.00899639 0.00382451 -0.0331581
0.011311 0.00221656 -0.0359067
0.0148781 0.00266586 -0.0517313
0.00831035 0.00415664 -0.1
0.00456019 0.00455949 -0.1
0.000217097 0.00486891 -0.1
-0.00415404 0.00462409 -0.1
-0.00790327 0.00423539 -0.1
-0.0144497 0.00273681 -0.0518982
-0.0108881 0.00227324 -0.036145
0.0119991 0.000174284 -0.0371637
0.015007 0.000178975 -0.0533102
0.00888816 0.000193308 -0.1
0.00486963 0.000216316 -0.1
0.00023185 0.00023115 -0.1
-0.00434662 0.000389196 -0.1
-0.00849809 0.000313402 -0.1
-0.0145152 0.000223365 -0.0535636
-0.0115755 0.000249107 -0.0374606
0.011325 -0.00186622 -0.0359385
0.0148899 -0.00230751 -0.051763
0.00834152 -0.00376501 -0.1
0.00462459 -0.00415461 -0.1
0.000390039 -0.00434739 -0.1
-0.00419997 -0.00420068 -0.1
-0.00746261 -0.00406241 -0.1
-0.0144461 -0.00219595 -0.0522013
-0.0109153 -0.00181074 -0.036274
0.00942142 -0.00342126 -0.0330281
0.012811 -0.00594507 -0.0444145
0.00635507 -0.00591631 -0.1
0.00423545 -0.00790444 -0.1
0.000314096 -0.00849874 -0.1
-0.00406171 -0.0074633 -0.1
-0.00559824 -0.00559892 -0.1
-0.0123812 -0.00592273 -0.0448631
-0.00901284 -0.00337684 -0.0333772
0.00707052 -0.00442846 -0.0287365
0.00736515 -0.00695575 -0.0382232
0.00636043 -0.0123801 -0.0444715
0.00273744 -0.0144505 -0.0518976
0.000223979 -0.014516 -0.0535632
-0.00219529 -0.0144469 -0.0522011
-0.00592208 -0.0123819 -0.044863
-0.00690854 -0.00690919 -0.0385353
-0.00665245 -0.00440645 -0.0290753
0.00515572 -0.00475857 -0.0243542
0.00482662 -0.00665889 -0.0287994
0.00382511 -0.00899703 -0.0331574
0.00227387 -0.0108888 -0.0361445
0.000249749 -0.0115763 -0.0374601
-0.00181011 -0.010916 -0.0362737
-0.00337621 -0.00901353 -0.033377
-0.00440583 -0.00665311 -0.0290752
-0.00473143 -0.00473205 -0.0246591
-0.00268285 -0.00268284 -0.00380079
-0.0018921 -0.00270831 -0.00362388
-0.00126718 -0.00277181 -0.00361019
-0.000644071 -0.00282762 -0.00365276
4.69922e-07 -0.00285128 -0.0036751
0.000645405 -0.00283257 -0.00365809
0.00126984 -0.00278163 -0.00362112
0.00189749 -0.00272283 -0.00364112
0.00269369 -0.00270189 -0.00382536
-0.00270831 -0.00189208 -0.00362387
-0.00190913 -0.00190912 -0.00344038
-0.00127264 -0.00195496 -0.00342426
-0.000644388 -0.00199962 -0.00346522
1.44081e-06 -0.00201855 -0.00348699
0.000647696 -0.00200348 -0.00347048
0.00127737 -0.00196258 -0.00343503
0.00191676 -0.00192033 -0.00345737
0.00272165 -0.00190667 -0.00364823
-0.0027718 -0.00126717 -0.00361016
-0.00195495 -0.00127264 -0.00342424
-0.00130455 -0.00130455 -0.00341234
-0.000660486 -0.00133635 -0.00345837
1.62694e-06 -0.0013502 -0.00348223
0.000664227 -0.00133937 -0.00346387
0.00130988 -0.00131049 -0.00342359
0.00196348 -0.00128134 -0.00344195
0.00278649 -0.00127838 -0.00363558
-0.0028276 -0.00064406 -0.00365272
-0.00199961 -0.000644383 -0.0034652
-0.00133635 -0.000660485 -0.00345836
-0.000677382 -0.000677384 -0.00350986
1.36502e-06 -0.000684934 -0.00353605
0.000680669 -0.000679565 -0.00351576
0.00134143 -0.000664763 -0.00347039
0.00200822 -0.00065059 -0.00348405
0.00284287 -0.000651934 -0.00367969
-0.00285125 4.75346e-07 -0.00367506
-0.00201853 1.44176e-06 -0.00348696
-0.00135019 1.62555e-06 -0.00348221
-0.00068493 1.36252e-06 -0.00353604
8.33994e-07 8.31164e-07 -0.00356329
0.000687224 1.10738e-07 -0.00354236
0.00135448 -8.05237e-07 -0.00349506
0.00202668 -2.01619e-06 -0.00350702
0.00286655 -3.76641e-06 -0.00370358
-0.00283254 0.000645403 -0.00365803
-0.00200346 0.000647691 -0.00347044
-0.00133936 0.000664222 -0.00346384
-0.00067956 0.000680664 -0.00351574
1.13252e-07 0.00068722 -0.00354235
0.000680476 0.000680474 -0.00352246
0.00134246 0.000663896 -0.00347749
0.00201072 0.000647353 -0.00349164
0.00284739 0.000645254 -0.00368796
-0.00278159 0.00126982 -0.00362106
-0.00196255 0.00127736 -0.00343498
-0.00131048 0.00130987 -0.00342355
-0.000664758 0.00134142 -0.00347036
-8.03826e-07 0.00135448 -0.00349504
0.000663895 0.00134245 -0.00347748
0.00131197 0.00131197 -0.00343797
0.00196847 0.00128059 -0.00345725
0.00279547 0.00127435 -0.00365221
-0.00272279 0.00189746 -0.00364104
-0.00192031 0.00191674 -0.0034573
-0.00128132 0.00196346 -0.0034419
-0.000650585 0.0020082 -0.00348401