# vtk DataFile Version 3.0
vtk output at time 1
ASCII
DATASET UNSTRUCTURED_GRID
POINTS 1331 float
0 0 0 1 0 0 1 1 0 
0 1 0 0.00496096 0.00496078 0.984603 0.995395 0.00498896 0.984432 
0.995428 0.995428 0.984106 0.00498913 0.995395 0.984432 0.1 0 0 
0.2 0 0 0.3 0 0 0.4 0 0 
0.5 0 0 0.6 0 0 0.7 0 0 
0.8 0 0 0.9 0 0 1.00422 -0.00423576 0.0931469 
1.00582 -0.00584328 0.189077 1.00704 -0.00704435 0.285951 1.00778 -0.00775928 0.383465 
1.00809 -0.0080265 0.481839 1.00775 -0.00763658 0.581323 1.00641 -0.00623099 0.681945 
1.00372 -0.00347046 0.78323 0.999736 0.000579859 0.884221 0.895551 0.00534805 0.98061 
0.795912 0.0067597 0.977722 0.696723 0.0085868 0.97572 0.598217 0.010138 0.974323 
0.500177 0.0107413 0.973849 0.402137 0.010123 0.97435 0.303631 0.00855927 0.975775 
0.204443 0.00672511 0.977811 0.104804 0.00531362 0.980737 0.000573275 0.000573129 0.884394 
-0.00345615 -0.00345626 0.783404 -0.00619844 -0.00619852 0.682116 -0.00759055 -0.0075906 0.581487 
-0.0079724 -0.00797243 0.48199 -0.00770226 -0.00770227 0.383597 -0.00698925 -0.00698924 0.286059 
-0.00579593 -0.00579592 0.189158 -0.00420223 -0.00420222 0.0931951 1 0.1 0 
1 0.2 0 1 0.3 0 1 0.4 0 
1 0.5 0 1 0.6 0 1 0.7 0 
1 0.8 0 1 0.9 0 1.00426 1.00426 0.0930852 
1.00587 1.00587 0.188967 1.0071 1.0071 0.285791 1.00784 1.00784 0.383256 
1.00816 1.00816 0.481584 1.00782 1.00782 0.581032 1.00648 1.00648 0.681629 
1.00378 1.00378 0.782904 0.999789 0.999788 0.883894 0.995072 0.895581 0.980265 
0.993658 0.795947 0.977366 0.991826 0.696764 0.97536 0.990276 0.598274 0.973974 
0.989677 0.500233 0.973528 0.990291 0.402189 0.974064 0.991839 0.30367 0.975527 
0.993652 0.204473 0.977594 0.99505 0.104832 0.980544 0.9 1 0 
0.8 1 0 0.7 1 0 0.6 1 0 
0.5 1 0 0.4 1 0 0.3 1 0 
0.2 1 0 0.1 1 0 -0.00423574 1.00422 0.093147 
-0.00584325 1.00582 0.189078 -0.0070443 1.00704 0.285951 -0.00775922 1.00778 0.383465 
-0.00802641 1.00809 0.481839 -0.00763647 1.00775 0.581323 -0.00623085 1.00641 0.681945 
-0.0034703 1.00371 0.78323 0.00058003 0.999736 0.884221 0.104832 0.99505 0.980545 
0.204474 0.993652 0.977594 0.30367 0.991838 0.975527 0.402189 0.990291 0.974064 
0.500233 0.989677 0.973528 0.598274 0.990275 0.973975 0.696764 0.991825 0.97536 
0.795947 0.993658 0.977366 0.895582 0.995072 0.980265 0 0.9 0 
0 0.8 0 0 0.7 0 0 0.6 0 
0 0.5 0 0 0.4 0 0 0.3 0 
0 0.2 0 0 0.1 0 0.00531381 0.104804 0.980737 
0.0067253 0.204442 0.977811 0.00855947 0.303631 0.975775 0.0101232 0.402136 0.97435 
0.0107415 0.500177 0.973849 0.0101382 0.598217 0.974323 0.00858692 0.696723 0.97572 
0.00675984 0.795911 0.977722 0.00534821 0.895551 0.98061 0.0973037 -0.00415235 0.094682 
0.198064 -0.00422798 0.094825 0.298681 -0.00431161 0.0947919 0.399321 -0.00438559 0.0947112 
0.499998 -0.00441661 0.0946734 0.600675 -0.00439262 0.0947033 0.701317 -0.00432562 0.094776 
0.801936 -0.00424881 0.0948003 0.902702 -0.00417966 0.0946474 0.0952285 -0.00591908 0.190296 
0.196386 -0.00606395 0.19065 0.297513 -0.00625228 0.190536 0.398721 -0.00640047 0.19035 
0.500003 -0.00646009 0.190264 0.601286 -0.00641044 0.190337 0.702496 -0.00627206 0.190508 
0.803628 -0.00609325 0.190607 0.904791 -0.00595755 0.190235 0.0939346 -0.00707437 0.286723 
0.195091 -0.0073216 0.286766 0.296525 -0.00762813 0.286427 0.398195 -0.00788055 0.286045 
0.500014 -0.00798011 0.285883 0.601834 -0.00789194 0.286027 0.703507 -0.00765076 0.28639 
0.804945 -0.00735521 0.286708 0.906106 -0.00711857 0.286641 0.0930296 -0.00780539 0.383732 
0.194132 -0.00817551 0.383219 0.295724 -0.00867549 0.382403 0.397751 -0.00908678 0.381698 
0.50003 -0.00924752 0.381417 0.60231 -0.00909828 0.381675 0.70434 -0.0086984 0.382357 
0.805935 -0.00820968 0.383148 0.907042 -0.00785077 0.383633 0.0925059 -0.00813389 0.481463 
0.193479 -0.00873527 0.480206 0.29514 -0.00954275 0.478743 0.397418 -0.0102014 0.477601 
0.500051 -0.0104551 0.477167 0.602684 -0.0102117 0.477576 0.704964 -0.00956353 0.478691 
0.806628 -0.00876669 0.480126 0.907604 -0.0081763 0.48135 0.0925688 -0.00786392 0.580108 
0.193333 -0.0088192 0.578023 0.294939 -0.0100548 0.575876 0.397294 -0.0110423 0.574293 
0.500075 -0.0114134 0.573708 0.602857 -0.0110498 0.574266 0.705213 -0.0100704 0.575821 
0.80682 -0.00884394 0.577937 0.907587 -0.00789879 0.579986 0.0936519 -0.00660944 0.679744 
0.194142 -0.00792841 0.676971 0.29549 -0.00958335 0.674355 0.397588 -0.0108224 0.672514 
0.500103 -0.0112727 0.671843 0.602617 -0.0108252 0.672487 0.704714 -0.00959035 0.674299 
0.806062 -0.00794199 0.676882 0.906554 -0.0066318 0.679617 0.0962421 -0.00391214 0.78013 
0.196438 -0.00519574 0.777091 0.297272 -0.00661647 0.774566 0.39859 -0.00767352 0.772771 
0.500131 -0.00804011 0.77212 0.601672 -0.00767014 0.772745 0.702988 -0.00661209 0.774511 
0.80382 -0.00519428 0.777002 0.904015 -0.00391752 0.780002 0.100384 0.000324156 0.880617 
0.200439 7.01234e-05 0.877701 0.300468 -6.11646e-05 0.875369 0.40036 -7.03724e-05 0.873881 
0.500158 -7.5723e-05 0.873325 0.599954 -6.08837e-05 0.873854 0.699845 -4.49693e-05 0.875314 
0.799871 8.81638e-05 0.877612 0.899924 0.000338398 0.880489 1.00417 0.0972805 0.0946443 
1.00425 0.198047 0.0947859 1.00434 0.298668 0.0947507 1.00441 0.399312 0.0946675 
1.00445 0.499993 0.0946278 1.00442 0.600676 0.0946562 1.00435 0.701323 0.094728 
1.00428 0.801948 0.0947517 1.0042 0.902724 0.094598 1.00596 0.0951895 0.190222 
1.00611 0.196356 0.190575 1.0063 0.29749 0.190457 1.00645 0.398706 0.190266 
1.00651 0.499996 0.190175 1.00646 0.601287 0.190245 1.00632 0.702507 0.190414 
1.00614 0.80365 0.19051 1.006 0.904827 0.190134 1.00713 0.0938876 0.286617 
1.00739 0.195053 0.286656 1.0077 0.296495 0.286311 1.00795 0.398175 0.285921 
1.00805 0.500004 0.285751 1.00797 0.601836 0.285888 1.00772 0.703522 0.286245 
1.00742 0.804974 0.286559 1.00718 0.906151 0.286488 1.00789 0.0929795 0.383597 
1.00827 0.19409 0.383077 1.00878 0.29569 0.38225 1.00919 0.397727 0.381532 
1.00936 0.500018 0.381238 1.00921 0.602313 0.381486 1.00881 0.704359 0.382161 
1.00831 0.805971 0.382948 1.00795 0.907093 0.383429 1.00826 0.092457 0.481305 
1.00887 0.193436 0.480037 1.00968 0.295104 0.478557 1.01035 0.397391 0.477397 
1.01061 0.500037 0.476943 1.01037 0.602688 0.477337 1.00972 0.704987 0.478443 
1.00892 0.806669 0.479875 1.00832 0.907662 0.481099 1.00803 0.092526 0.579932 
1.009 0.193293 0.577832 1.01024 0.294903 0.575664 1.01124 0.397266 0.574055 
1.01162 0.50006 0.573443 1.01127 0.602861 0.57398 1.01029 0.70524 0.575525 
1.00905 0.806869 0.577641 1.0081 0.907651 0.579694 1.00683 0.0936206 0.679557 
1.00815 0.194112 0.676765 1.00982 0.29546 0.674124 1.01107 0.397563 0.672251 
1.01154 0.500089 0.671547 1.01111 0.602624 0.672166 1.00988 0.704747 0.673966 
1.00822 0.806117 0.676551 1.00689 0.906622 0.679295 1.00418 0.0962275 0.779938 
1.00547 0.196423 0.776878 1.00691 0.297256 0.774324 1.00798 0.398577 0.772492 
1.00837 0.500129 0.771805 1.00802 0.601687 0.7724 1.00696 0.703025 0.774154 
1.00553 0.803875 0.776651 1.00424 0.904081 0.779663 0.999992 0.10039 0.880424 
1.00026 0.200444 0.877484 1.0004 0.300475 0.875122 1.00043 0.400373 0.873595 
1.00046 0.50018 0.873002 1.00045 0.599987 0.873507 1.00044 0.699885 0.874955 
1.0003 0.799918 0.877254 1.00004 0.899975 0.880144 0.902724 1.0042 0.094598 
0.801948 1.00428 0.0947517 0.701323 1.00435 0.094728 0.600676 1.00442 0.0946562 
0.499993 1.00445 0.0946278 0.399312 1.00441 0.0946676 0.298668 1.00434 0.0947507 
0.198047 1.00425 0.0947859 0.0972805 1.00417 0.0946444 0.904827 1.006 0.190134 
0.80365 1.00614 0.19051 0.702507 1.00632 0.190414 0.601287 1.00646 0.190245 
0.499996 1.00651 0.190175 0.398706 1.00645 0.190266 0.29749 1.0063 0.190457 
0.196356 1.00611 0.190575 0.0951896 1.00596 0.190222 0.906151 1.00718 0.286488 
0.804974 1.00742 0.286559 0.703522 1.00772 0.286245 0.601836 1.00797 0.285888 
0.500004 1.00805 0.285751 0.398175 1.00795 0.285921 0.296495 1.0077 0.286311 
0.195053 1.00739 0.286656 0.0938877 1.00713 0.286617 0.907093 1.00795 0.383429 
0.805971 1.00831 0.382948 0.704359 1.00881 0.382161 0.602313 1.00921 0.381486 
0.500018 1.00936 0.381238 0.397727 1.00919 0.381532 0.29569 1.00878 0.38225 
0.19409 1.00827 0.383077 0.0929795 1.00789 0.383597 0.907662 1.00832 0.481099 
0.80667 1.00892 0.479875 0.704987 1.00972 0.478443 0.602688 1.01037 0.477337 
0.500037 1.01061 0.476943 0.397391 1.01035 0.477397 0.295104 1.00968 0.478557 
0.193436 1.00887 0.480037 0.0924571 1.00826 0.481305 0.907651 1.0081 0.579694 
0.806869 1.00905 0.577641 0.70524 1.01029 0.575525 0.602861 1.01127 0.57398 
0.50006 1.01162 0.573443 0.397266 1.01124 0.574055 0.294903 1.01024 0.575664 
0.193294 1.009 0.577832 0.0925261 1.00803 0.579932 0.906622 1.00689 0.679295 
0.806117 1.00822 0.676551 0.704747 1.00988 0.673967 0.602624 1.01111 0.672167 
0.500089 1.01154 0.671547 0.397563 1.01107 0.672252 0.29546 1.00982 0.674124 
0.194112 1.00815 0.676765 0.0936207 1.00683 0.679557 0.904081 1.00424 0.779663 
0.803875 1.00553 0.776651 0.703025 1.00696 0.774154 0.601687 1.00802 0.7724 
0.500129 1.00837 0.771805 0.398577 1.00798 0.772493 0.297256 1.00691 0.774324 
0.196423 1.00547 0.776878 0.0962277 1.00418 0.779938 0.899975 1.00004 0.880144 
0.799918 1.0003 0.877254 0.699885 1.00044 0.874955 0.599987 1.00045 0.873507 
0.50018 1.00046 0.873003 0.400373 1.00043 0.873595 0.300475 1.0004 0.875122 
0.200445 1.00026 0.877485 0.10039 0.999992 0.880424 -0.00417964 0.902702 0.0946475 
-0.00424879 0.801936 0.0948003 -0.0043256 0.701317 0.094776 -0.0043926 0.600675 0.0947033 
-0.0044166 0.499998 0.0946735 -0.00438558 0.399321 0.0947112 -0.00431161 0.298681 0.094792 
-0.00422798 0.198064 0.094825 -0.00415235 0.0973037 0.094682 -0.00595752 0.904791 0.190235 
-0.00609322 0.803628 0.190607 -0.00627203 0.702496 0.190508 -0.00641041 0.601286 0.190337 
-0.00646007 0.500003 0.190264 -0.00640045 0.398721 0.19035 -0.00625227 0.297513 0.190536 
-0.00606394 0.196386 0.19065 -0.00591908 0.0952285 0.190296 -0.00711853 0.906106 0.286641 
[...]
POINT_DATA 1331
VECTORS displacement float
0 0 0
0 0 0
0 0 0
0 0 0
0.00496096 0.00496078 -0.0153966
-0.00460516 0.00498896 -0.0155681
-0.00457219 -0.00457237 -0.0158942
0.00498913 -0.00460533 -0.0155679
0 0 0
0 0 0
0 0 0
0 0 0
0 0 0
0 0 0
0 0 0
0 0 0
0 0 0
0.00421902 -0.00423576 -0.00685306
0.00582289 -0.00584328 -0.0109225
0.00703675 -0.00704435 -0.0140491
0.007779 -0.00775928 -0.0165352
0.00808665 -0.0080265 -0.0181613
0.00774912 -0.00763658 -0.0186769
0.00640611 -0.00623099 -0.0180552
0.00371498 -0.00347046 -0.01677
-0.000264303 0.000579859 -0.0157794
-0.00444919 0.00534805 -0.0193903
-0.0040884 0.0067597 -0.0222777
-0.00327727 0.0085868 -0.0242799
-0.00178281 0.010138 -0.0256768
0.000176847 0.0107413 -0.0261511
0.00213655 0.010123 -0.0256504
0.00363142 0.00855927 -0.0242247
0.00444259 0.00672511 -0.0221895
0.00480382 0.00531362 -0.0192631
0.000573275 0.000573129 -0.0156065
-0.00345615 -0.00345626 -0.0165964
-0.00619844 -0.00619852 -0.0178838
-0.00759055 -0.0075906 -0.0185126
-0.0079724 -0.00797243 -0.0180099
-0.00770226 -0.00770227 -0.0164028
-0.00698925 -0.00698924 -0.0139407
-0.00579593 -0.00579592 -0.0108419
-0.00420223 -0.00420222 -0.00680488
0 0 0
0 0 0
0 0 0
0 0 0
0 0 0
0 0 0
0 0 0
0 0 0
0 0 0
0.00425523 0.00425524 -0.00691481
0.00587233 0.00587234 -0.0110332
0.00709547 0.00709548 -0.0142088
0.00784429 0.00784428 -0.016744
0.00815772 0.0081577 -0.0184156
0.00782464 0.00782459 -0.0189683
0.00648217 0.00648209 -0.0183707
0.00378387 0.00378376 -0.0170958
-0.000211387 -0.000211532 -0.0161061
-0.00492807 -0.00441863 -0.0197347
-0.00634184 -0.00405306 -0.0226336
-0.00817442 -0.00323611 -0.0246401
-0.00972448 -0.00172647 -0.0260255
-0.0103232 0.000233199 -0.0264725
-0.00970927 0.00218895 -0.0259364
-0.0081614 0.00366955 -0.0244729
-0.00634805 0.0044734 -0.022406
-0.00495024 0.00483153 -0.0194556
0 0 0
0 0 0
0 0 0
0 0 0
0 0 0
0 0 0
0 0 0
0 0 0
0 0 0
-0.00423574 0.004219 -0.00685301
-0.00584325 0.00582286 -0.0109224
-0.0070443 0.00703671 -0.014049
-0.00775922 0.00777894 -0.016535
-0.00802641 0.00808656 -0.0181611
-0.00763647 0.00774901 -0.0186767
-0.00623085 0.00640597 -0.0180549
-0.0034703 0.00371483 -0.0167698
0.00058003 -0.000264465 -0.0157792
0.0048317 -0.00495041 -0.0194554
0.00447358 -0.00634823 -0.0224058
0.00366973 -0.00816159 -0.0244727
0.00218914 -0.00970947 -0.0259362
0.000233391 -0.0103234 -0.0264723
-0.00172628 -0.0097247 -0.0260254
-0.00323593 -0.00817463 -0.02464
-0.00405288 -0.00634204 -0.0226335
-0.00441845 -0.00492825 -0.0197347
0 0 0
0 0 0
0 0 0
0 0 0
0 0 0
0 0 0
0 0 0
0 0 0
0 0 0
0.00531381 0.00480364 -0.019263
0.0067253 0.00444241 -0.0221894
0.00855947 0.00363123 -0.0242246
0.0101232 0.00213635 -0.0256503
0.0107415 0.000176642 -0.026151
0.0101382 -0.001783 -0.0256767
0.00858692 -0.00327746 -0.0242798
0.00675984 -0.00408856 -0.0222775
0.00534821 -0.00444935 -0.0193901
-0.00269629 -0.00415235 -0.005318
-0.0019356 -0.00422798 -0.00517503
-0.00131915 -0.00431161 -0.00520805
-0.000679113 -0.00438559 -0.00528883
-2.04792e-06 -0.00441661 -0.00532656
0.00067542 -0.00439262 -0.00529669
0.00131679 -0.00432562 -0.00522405
0.00193597 -0.00424881 -0.00519974
0.00270216 -0.00417966 -0.00535258
-0.00477152 -0.00591908 -0.00970383
-0.00361428 -0.00606395 -0.00935026
-0.00248696 -0.00625228 -0.00946418
-0.00127868 -0.00640047 -0.00964996
3.21577e-06 -0.00646009 -0.0097363
0.00128581 -0.00641044 -0.00966341
0.00249627 -0.00627206 -0.00949165
0.00362765 -0.00609325 -0.00939318
0.00479121 -0.00595755 -0.00976507
-0.00606538 -0.00707437 -0.0132767
-0.00490896 -0.0073216 -0.0132339
-0.0034751 -0.00762813 -0.0135731
-0.00180497 -0.00788055 -0.0139545
1.42328e-05 -0.00798011 -0.0141168
0.00183422 -0.00789194 -0.0139727
0.00350674 -0.00765076 -0.0136104
0.00494462 -0.00735521 -0.0132923
0.00610634 -0.00711857 -0.013359
-0.00697043 -0.00780539 -0.0162677
-0.00586803 -0.00817551 -0.0167812
-0.00427637 -0.00867549 -0.0175972
-0.00224867 -0.00908678 -0.0183024
3.03143e-05 -0.00924752 -0.0185834
0.00231002 -0.00909828 -0.0183246
0.00433986 -0.0086984 -0.0176427
0.0059349 -0.00820968 -0.0168523
0.00704173 -0.00785077 -0.0163674
-0.00749409 -0.00813389 -0.0185366
-0.00652103 -0.00873527 -0.0197935
-0.00485974 -0.00954275 -0.0212572
-0.00258197 -0.0102014 -0.0223985
5.08688e-05 -0.0104551 -0.0228334
0.00268425 -0.0102117 -0.0224236
0.00496361 -0.00956353 -0.0213087
0.00662749 -0.00876669 -0.0198739
0.00760403 -0.0081763 -0.0186497
-0.00743118 -0.00786392 -0.0198922
-0.00666696 -0.0088192 -0.0219771
-0.00506136 -0.0100548 -0.0241242
-0.00270574 -0.0110423 -0.0257075
7.52825e-05 -0.0114134 -0.0262923
0.00285651 -0.0110498 -0.025734
0.00521286 -0.0100704 -0.0241789
0.00681994 -0.00884394 -0.0220633
0.00758657 -0.00789879 -0.0200143
-0.00634807 -0.00660944 -0.0202564
-0.00585773 -0.00792841 -0.0230295
-0.00451001 -0.00958335 -0.0256452
-0.00241181 -0.0108224 -0.0274857
0.000102642 -0.0112727 -0.0281569
0.0026168 -0.0108252 -0.0275125
0.00471444 -0.00959035 -0.025701
0.00606209 -0.00794199 -0.0231183
0.00655352 -0.0066318 -0.0203831
-0.00375788 -0.00391214 -0.0198703
-0.00356199 -0.00519574 -0.0229088
-0.00272847 -0.00661647 -0.0254336
-0.00141016 -0.00767352 -0.0272288
0.00013118 -0.00804011 -0.0278797
0.00167177 -0.00767014 -0.0272554
0.00298821 -0.00661209 -0.0254895
0.00381986 -0.00519428 -0.0229981
0.00401533 -0.00391752 -0.0199985
0.0003844 0.000324156 -0.0193834
0.000439265 7.01234e-05 -0.0222991
0.000467754 -6.11646e-05 -0.0246306
0.000360165 -7.03724e-05 -0.0261192
0.000157635 -7.5723e-05 -0.0266747
-4.56722e-05 -6.08837e-05 -0.0261456
-0.000155279 -4.49693e-05 -0.0246858
-0.000129305 8.81638e-05 -0.0223879
-7.60978e-05 0.000338398 -0.0195113
0.0041738 -0.00271947 -0.00535567
0.00425284 -0.0019532 -0.0052141
0.00433868 -0.00133248 -0.00524934
0.00441407 -0.000688307 -0.00533245
0.00444584 -6.82007e-06 -0.00537221
0.00442196 0.000675584 -0.00534383
0.00435432 0.00132258 -0.00527201
0.00427595 0.00194849 -0.00524828
0.00420376 0.00272361 -0.00540202
0.00595508 -0.00481045 -0.00977794
0.00610562 -0.00364449 -0.00942505
0.0062976 -0.00250975 -0.00954303
0.00644791 -0.0012942 -0.00973365
0.00650843 -4.44781e-06 -0.00982457
0.00645851 0.00128693 -0.00975532
0.00631858 0.00250732 -0.00958632
0.00613656 0.00365006 -0.00949026
0.00599551 0.00482713 -0.0098665
0.00713219 -0.00611235 -0.0133833
0.0073867 -0.00494725 -0.0133438
0.00769799 -0.00350461 -0.0136894
0.00795338 -0.00182523 -0.014079
0.00805439 4.37615e-06 -0.0142493
0.00796607 0.0018363 -0.014112
0.00772289 0.00352215 -0.0137546
0.00742315 0.00497427 -0.0134406
0.00717967 0.00615056 -0.0135118
0.00789307 -0.00702054 -0.0164029
0.00827127 -0.00591041 -0.0169234
0.00877719 -0.00431036 -0.01775
0.00919284 -0.0022728 -0.018468
0.00935642 1.83631e-05 -0.0187618
0.00920801 0.0023128 -0.0185137
0.00880634 0.00435902 -0.0178388
0.00831287 0.00597051 -0.0170524
0.00794635 0.00709272 -0.016571
0.00825909 -0.00754296 -0.0186952
0.00886912 -0.00656405 -0.0199635
0.009684 -0.00489604 -0.0214428
0.0103495 -0.0026092 -0.022603
0.0106091 3.67263e-05 -0.0230571
0.010369 0.00268753 -0.0226629
0.00971986 0.00498669 -0.0215569
0.0089175 0.00666948 -0.0201247
0.00831832 0.00766184 -0.0189009
0.0080329 -0.00747402 -0.0200682
0.00899719 -0.00670653 -0.0221685
0.010242 -0.00509703 -0.0243364
0.0112402 -0.00273442 -0.0259454
0.0116225 5.96313e-05 -0.0265568
0.0112673 0.0028607 -0.0260198
0.0102884 0.0052404 -0.0244752
0.00905419 0.00686879 -0.0223594
0.00809789 0.00765112 -0.0203063
0.00682639 -0.00637942 -0.0204432
0.0081545 -0.0058884 -0.0232352
0.00982074 -0.00453979 -0.0258764
0.0110749 -0.00243734 -0.0277486
0.0115428 8.86807e-05 -0.0284529
0.0111084 0.00262363 -0.0278336
0.00987577 0.00474696 -0.0260335
0.0082185 0.00611677 -0.0234491
0.00689419 0.00662203 -0.020705
0.00417885 -0.00377247 -0.0200622
0.0054719 -0.00357745 -0.0231223
0.00690616 -0.0027443 -0.0256762
0.00798189 -0.00142318 -0.0275075
0.0083699 0.000128493 -0.0281954
0.0080164 0.00168731 -0.0276
0.00696126 0.00302509 -0.0258458
0.00553311 0.00387465 -0.0233489
0.00424172 0.00408064 -0.0203371
-8.17469e-06 0.000390161 -0.0195764
0.000256997 0.000444417 -0.0225156
0.000404876 0.000474654 -0.0248779
0.000433576 0.000373154 -0.0264051
0.000456527 0.000179659 -0.0269975
0.000451128 -1.34502e-05 -0.0264932
0.000437066 -0.000114988 -0.025045
0.000298738 -8.17863e-05 -0.0227458
3.83584e-05 -2.49376e-05 -0.0198558
0.00272361 0.00420377 -0.00540202
0.00194848 0.00427595 -0.00524827
0.00132257 0.00435431 -0.005272
0.000675579 0.00442195 -0.00534382
-6.82333e-06 0.00444583 -0.00537219
-0.000688308 0.00441405 -0.00533243
-0.00133248 0.00433866 -0.00524931
-0.0019532 0.00425282 -0.00521407
-0.00271946 0.00417378 -0.00535563
0.00482712 0.00599551 -0.00986649
0.00365006 0.00613656 -0.00949025
0.00250731 0.00631857 -0.00958629
0.00128693 0.00645849 -0.00975529
-4.44719e-06 0.00650841 -0.00982453
-0.0012942 0.00644788 -0.00973361
-0.00250974 0.00629757 -0.00954298
-0.00364448 0.00610559 -0.00942499
-0.00481043 0.00595505 -0.00977787
0.00615056 0.00717966 -0.0135118
0.00497427 0.00742314 -0.0134406
0.00352215 0.00772287 -0.0137546
0.00183631 0.00796604 -0.0141119
4.38603e-06 0.00805436 -0.0142493
-0.00182522 0.00795335 -0.0140789
-0.00350459 0.00769795 -0.0136894
-0.00494722 0.00738666 -0.0133437
-0.00611231 0.00713215 -0.0133832
0.00709273 0.00794633 -0.016571
0.00597052 0.00831284 -0.0170524
0.00435904 0.00880631 -0.0178388
0.00231281 0.00920797 -0.0185136
1.83862e-05 0.00935637 -0.0187617
-0.00227277 0.00919279 -0.0184679
-0.00431032 0.00877714 -0.0177499
-0.00591036 0.00827121 -0.0169233
-0.00702048 0.00789301 -0.0164027
0.00766187 0.00831828 -0.0189009
0.00666951 0.00891745 -0.0201246
0.00498672 0.0097198 -0.0215568
0.00268756 0.010369 -0.0226629
3.67661e-05 0.010609 -0.023057
-0.00260915 0.0103494 -0.0226028
-0.00489598 0.00968392 -0.0214427
-0.00656398 0.00886904 -0.0199633
-0.00754288 0.008259 -0.018695
0.00765117 0.00809783 -0.0203063
0.00686884 0.00905412 -0.0223593
0.00524045 0.0102883 -0.0244752
0.00286075 0.0112672 -0.0260197
5.96905e-05 0.0116224 -0.0265567
-0.00273434 0.0112401 -0.0259452
-0.00509694 0.0102419 -0.0243363
-0.00670643 0.00899708 -0.0221683
-0.00747392 0.00803278 -0.020068
0.00662211 0.0068941 -0.0207049
0.00611684 0.00821839 -0.0234491
0.00474703 0.00987566 -0.0260334
0.0026237 0.0111083 -0.0278335
8.87653e-05 0.0115426 -0.0284527
-0.00243724 0.0110747 -0.0277484
-0.00453968 0.00982058 -0.0258762
-0.00588827 0.00815435 -0.023235
-0.00637928 0.00682625 -0.020443
0.00408075 0.0042416 -0.0203371
0.00387476 0.00553298 -0.0233489
0.0030252 0.00696112 -0.0258457
0.00168743 0.00801625 -0.0275999
0.000128611 0.00836973 -0.0281952
-0.00142305 0.00798171 -0.0275074
-0.00274416 0.00690599 -0.025676
-0.00357729 0.00547173 -0.0231221
-0.00377231 0.00417868 -0.020062
-2.47933e-05 3.82037e-05 -0.0198558
-8.16414e-05 0.000298573 -0.0227457
-0.000114841 0.000436892 -0.0250449
-1.32994e-05 0.000450945 -0.0264931
0.000179815 0.000456337 -0.0269974
0.000373316 0.000433385 -0.0264049
0.000474821 0.000404688 -0.0248777
0.000444587 0.000256817 -0.0225154
0.000390332 -8.34517e-06 -0.0195762
-0.00417964 0.00270215 -0.00535255
-0.00424879 0.00193597 -0.0051997
-0.0043256 0.00131679 -0.00522402
-0.0043926 0.000675422 -0.00529666
-0.0044166 -2.04433e-06 -0.00532654
-0.00438558 -0.000679108 -0.00528881
-0.00431161 -0.00131914 -0.00520804
-0.00422798 -0.00193559 -0.00517503
-0.00415235 -0.00269629 -0.005318
-0.00595752 0.00479118 -0.009765
-0.00609322 0.00362763 -0.00939312
-0.00627203 0.00249627 -0.00949159
-0.00641041 0.0012858 -0.00966336
-0.00646007 3.21588e-06 -0.00973627
-0.00640045 -0.00127868 -0.00964993
-0.00625227 -0.00248696 -0.00946415
-0.00606394 -0.00361427 -0.00935025
-0.00591908 -0.00477151 -0.00970383
-0.00711853 0.0061063 -0.0133589
-0.00735516 0.00494459 -0.0132923
-0.00765072 0.00350672 -0.0136104
-0.0078919 0.00183421 -0.0139727
-0.00798008 1.42243e-05 -0.0141167
-0.00788052 -0.00180497 -0.0139545
-0.00762811 -0.00347511 -0.0135731
-0.00732159 -0.00490896 -0.0132339
-0.00707437 -0.00606538 -0.0132767
-0.00785071 0.00704168 -0.0163673
-0.00820962 0.00593486 -0.0168521
-0.00869835 0.00433982 -0.0176426
-0.00909823 0.00230999 -0.0183245
-0.00924748 3.02929e-05 -0.0185833
-0.00908674 -0.00224868 -0.0183024
-0.00867546 -0.00427638 -0.0175971
-0.00817548 -0.00586804 -0.0167812
-0.00780537 -0.00697043 -0.0162676
-0.00817621 0.00760395 -0.0186496
-0.0087666 0.00662742 -0.0198737
-0.00956345 0.00496355 -0.0213085
-0.0102117 0.0026842 -0.0224235
-0.010455 5.0831e-05 -0.0228333
-0.0102013 -0.002582 -0.0223985
-0.0095427 -0.00485976 -0.0212572
-0.00873523 -0.00652106 -0.0197935
-0.00813385 -0.00749412 -0.0185365
-0.00789867 0.00758646 -0.0200141
-0.00884383 0.00681983 -0.0220631
-0.0100703 0.00521277 -0.0241787
-0.0110497 0.00285644 -0.0257338
-0.0114133 7.52239e-05 -0.0262922
-0.0110422 -0.00270579 -0.0257074
-0.0100547 -0.00506141 -0.0241241
-0.00881913 -0.00666701 -0.021977
-0.00786386 -0.00743123 -0.0198922
-0.00663166 0.00655338 -0.0203829
-0.00794184 0.00606196 -0.0231181
-0.00959019 0.00471432 -0.0257008
-0.010825 0.0026167 -0.0275123
-0.0112725 0.000102556 -0.0281567
-0.0108222 -0.00241188 -0.0274856
-0.00958324 -0.00451008 -0.0256451
-0.00792831 -0.0058578 -0.0230294
-0.00660935 -0.00634814 -0.0202563
-0.00391736 0.00401517 -0.0199983
-0.00519411 0.00381971 -0.0229979
-0.00661192 0.00298806 -0.0254893
-0.00766996 0.00167164 -0.0272553
-0.00803994 0.00013106 -0.0278796
-0.00767336 -0.00141027 -0.0272287
-0.00661633 -0.00272858 -0.0254335
-0.00519561 -0.0035621 -0.0229087
-0.00391202 -0.00375799 -0.0198702
0.000338564 -7.62607e-05 -0.0195111
8.83254e-05 -0.000129467 -0.0223877
-4.48113e-05 -0.000155444 -0.0246857
-6.07192e-05 -4.58424e-05 -0.0261455
-7.55483e-05 0.000157468 -0.0266746
-7.01976e-05 0.000360006 -0.0261191
-6.09945e-05 0.000467602 -0.0246305
7.02868e-05 0.000439117 -0.0222991
0.000324311 0.000384254 -0.0193833
0 0 0
0 0 0
0 0 0
0 0 0
0 0 0
0 0 0
0 0 0
0 0 0
0 0 0
0 0 0
0 0 0
0 0 0
0 0 0
0 0 0
0 0 0
0 0 0
0 0 0
0 0 0
0 0 0
0 0 0
0 0 0
0 0 0
0 0 0
0 0 0
0 0 0
0 0 0
0 0 0
0 0 0
0 0 0
0 0 0
0 0 0
0 0 0
0 0 0
0 0 0
0 0 0
0 0 0
0 0 0
0 0 0
0 0 0
0 0 0
0 0 0
0 0 0
0 0 0
0 0 0
0 0 0
0 0 0
0 0 0
0 0 0
0 0 0
0 0 0
0 0 0
0 0 0
0 0 0
0 0 0
0 0 0
0 0 0
0 0 0
0 0 0
0 0 0
0 0 0
0 0 0
0 0 0
0 0 0
0 0 0
0 0 0
0 0 0
0 0 0
0 0 0
0 0 0
0 0 0
0 0 0
0 0 0
0 0 0
0 0 0
0 0 0
0 0 0
0 0 0
0 0 0
0 0 0
0 0 0
0 0 0
0.00511779 0.0051176 -0.0242025
0.00478469 0.00703276 -0.0286261
0.00377375 0.0093916 -0.032955
0.00221615 0.0113086 -0.0358994
0.000174046 0.0119975 -0.0371564
-0.0018663 0.0113227 -0.0359311
-0.00342072 0.00941795 -0.033021
-0.00442718 0.00706691 -0.0287304
-0.00475694 0.00515267 -0.0243491
0.00703295 0.0047845 -0.0286261
0.00732479 0.0073246 -0.0381003
0.00630975 0.0127828 -0.0443345
0.00266491 0.0148765 -0.0517225
0.000178784 0.0150075 -0.0533029
-0.00230696 0.0148885 -0.0517544
-0.00594327 0.0128069 -0.0444052
-0.00695331 0.00736127 -0.0382143
-0.00665667 0.0048239 -0.0287931
0.0093918 0.00377356 -0.032955
0.012783 0.00630955 -0.0443344
0.00629242 0.00629221 -0.1
0.00415115 0.00830842 -0.1
0.000193399 0.00888704 -0.1
-0.00375979 0.00833976 -0.1
-0.00591231 0.0063502 -0.1
-0.0123772 0.0063572 -0.0444619
-0.00899485 0.00382312 -0.0331499
0.0113088 0.00221595 -0.0358993
0.0148767 0.00266471 -0.0517225
0.00830863 0.00415093 -0.1
0.0045575 0.00455727 -0.1
0.000216752 0.00486844 -0.1
-0.00415243 0.00462149 -0.1
-0.00790347 0.00422921 -0.1
-0.0144503 0.00273547 -0.0518883
-0.0108877 0.0022725 -0.0361364
0.0119977 0.000173839 -0.0371562
0.0150077 0.000178565 -0.0533028
0.00888724 0.000193174 -0.1
0.00486866 0.00021651 -0.1
0.000231212 0.000230991 -0.1
-0.00434707 0.000388858 -0.1
-0.00849856 0.000312785 -0.1
-0.0145176 0.000222702 -0.0535551
-0.0115758 0.000248569 -0.0374517
0.0113228 -0.00186651 -0.035931
0.0148886 -0.00230716 -0.0517541
0.00833988 -0.00375984 -0.1
0.00462166 -0.00415262 -0.1
0.000389116 -0.00434731 -0.1
-0.00419873 -0.00419895 -0.1
-0.00746185 -0.00405756 -0.1
-0.0144463 -0.00219559 -0.0521908
-0.0109146 -0.0018111 -0.0362651
0.00941804 -0.0034209 -0.0330208
0.0128069 -0.00594346 -0.0444049
0.00635018 -0.00591268 -0.1
0.00422926 -0.00790381 -0.1
0.000313001 -0.00849876 -0.1
-0.00405735 -0.00746206 -0.1
-0.00559454 -0.00559475 -0.1
-0.0123785 -0.00592119 -0.0448518
-0.00901102 -0.00337639 -0.0333687
0.00706705 -0.00442735 -0.0287302
0.00736144 -0.00695348 -0.038214
0.0063574 -0.0123775 -0.0444616
0.00273566 -0.0144505 -0.0518881
0.000222894 -0.0145179 -0.0535549
-0.00219538 -0.0144466 -0.0521907
-0.00592099 -0.0123787 -0.0448518
-0.00690659 -0.00690678 -0.038525
-0.00665069 -0.00440523 -0.0290678
0.00515283 -0.00475711 -0.0243489
0.00482407 -0.00665684 -0.0287929
0.0038233 -0.00899504 -0.0331497
0.00227269 -0.0108879 -0.0361362
0.000248765 -0.011576 -0.0374516
-0.00181091 -0.0109148 -0.0362651
-0.0033762 -0.00901123 -0.0333686
-0.00440504 -0.00665088 -0.0290678
-0.0047303 -0.00473049 -0.0246528
-0.00268238 -0.00268237 -0.00380006
-0.00189178 -0.00270786 -0.00362326
-0.00126698 -0.00277136 -0.00360958
-0.000643962 -0.00282715 -0.00365215
4.74293e-07 -0.0028508 -0.00367448
0.000645305 -0.00283208 -0.00365743
0.00126962 -0.00278113 -0.00362047
0.00189713 -0.0027223 -0.00364037
0.00269314 -0.00270131 -0.00382443
-0.00270786 -0.00189178 -0.00362326
-0.00190882 -0.00190881 -0.00343982
-0.00127244 -0.00195464 -0.00342371
-0.000644286 -0.0019993 -0.00346467
1.43743e-06 -0.00201822 -0.00348642
0.000647587 -0.00200314 -0.00346989
0.00127715 -0.00196223 -0.00343441
0.00191641 -0.00191998 -0.00345668
0.00272112 -0.00190629 -0.00364745
-0.00277135 -0.00126697 -0.00360958
-0.00195464 -0.00127244 -0.0034237
-0.00130434 -0.00130434 -0.0034118
-0.000660386 -0.00133614 -0.00345782
1.61932e-06 -0.00134998 -0.00348166
0.00066411 -0.00133915 -0.00346329
0.00130965 -0.00131027 -0.00342298
0.00196313 -0.00128111 -0.0034413
0.00278596 -0.00127814 -0.00363486
-0.00282715 -0.00064396 -0.00365214
-0.0019993 -0.000644285 -0.00346466
-0.00133614 -0.000660387 -0.00345782
-0.000677282 -0.000677283 -0.00350931
1.35516e-06 -0.000684831 -0.00353548
0.000680547 -0.000679461 -0.00351517
0.00134119 -0.000664657 -0.00346978
0.00200785 -0.000650483 -0.0034834
0.00284233 -0.000651821 -0.00367894
-0.00285079 4.75525e-07 -0.00367446
-0.00201821 1.43736e-06 -0.00348641
-0.00134998 1.61848e-06 -0.00348166
-0.000684829 1.35392e-06 -0.00353548
8.23548e-07 8.22183e-07 -0.00356271
0.0006871 1.02449e-07 -0.00354177
0.00135424 -8.11962e-07 -0.00349445
0.0020263 -2.01865e-06 -0.00350636
0.002866 -3.76524e-06 -0.00370283
-0.00283207 0.000645304 -0.00365742
-0.00200313 0.000647586 -0.00346988
-0.00133915 0.000664108 -0.00346329
-0.000679459 0.000680545 -0.00351517
1.03725e-07 0.000687098 -0.00354176
0.000680353 0.000680352 -0.00352187
0.00134222 0.000663775 -0.00347687
0.00201035 0.000647235 -0.00349098
0.00284684 0.000645135 -0.00368723
-0.00278112 0.00126962 -0.00362045
-0.00196223 0.00127715 -0.0034344
-0.00131027 0.00130965 -0.00342297
-0.000664655 0.00134119 -0.00346977
-8.11028e-07 0.00135424 -0.00349444
0.000663775 0.00134222 -0.00347687
0.00131173 0.00131173 -0.00343732
0.00196811 0.00128036 -0.00345658
0.00279492 0.0012741 -0.00365146
-0.00272229 0.00189712 -0.00364035
-0.00191997 0.00191641 -0.00345666
-0.00128111 0.00196312 -0.00344128
-0.000650481 0.00200785 -0.00348339