# vtk DataFile Version 3.0
vtk output at time 1
ASCII
DATASET UNSTRUCTURED_GRID
POINTS 1331 float
0 0 0 1 0 0 1 1 0 
0 1 0 0.0048329 0.00521639 0.984615 0.995244 0.00523115 0.984577 
0.995213 0.995596 0.984038 0.00484286 0.995632 0.98408 0.1 0 0 
0.2 0 0 0.3 0 0 0.4 0 0 
0.5 0 0 0.6 0 0 0.7 0 0 
0.8 0 0 0.9 0 0 1.0042 -0.00422685 0.0931747 
1.0058 -0.0058285 0.18913 1.00701 -0.00701691 0.286027 1.00774 -0.00771261 0.383564 
1.00803 -0.00795401 0.481958 1.00767 -0.00753268 0.581458 1.00631 -0.00609205 0.682089 
1.0036 -0.00329551 0.783378 0.999602 0.000789474 0.884367 0.895401 0.00558874 0.980737 
0.795763 0.00700199 0.977834 0.696577 0.00883361 0.975818 0.598075 0.0103907 0.97441 
0.500038 0.0110001 0.973926 0.402001 0.010387 0.974418 0.303499 0.00882623 0.975833 
0.204313 0.00699119 0.977856 0.104676 0.00557534 0.980767 0.000464835 0.00078021 0.884406 
-0.00354367 -0.00329923 0.783416 -0.00626522 -0.00609007 0.682126 -0.00763802 -0.00752537 0.581493 
-0.00800285 -0.00794253 0.481991 -0.0077186 -0.0076987 0.383593 -0.00699509 -0.00700252 0.286051 
-0.00579555 -0.00581583 0.189148 -0.00420131 -0.00421799 0.0931862 1 0.1 0 
1 0.2 0 1 0.3 0 1 0.4 0 
1 0.5 0 1 0.6 0 1 0.7 0 
1 0.8 0 1 0.9 0 1.00429 1.00427 0.0930469 
1.00591 1.00589 0.188907 1.00714 1.00713 0.285717 1.00788 1.0079 0.383172 
1.00818 1.00824 0.481499 1.00781 1.00793 0.580951 1.00643 1.0066 0.681556 
1.00368 1.00392 0.782836 0.999627 0.999942 0.883827 0.99485 0.895752 0.980211 
0.993428 0.796127 0.977324 0.991595 0.69696 0.975332 0.990059 0.598489 0.973963 
0.989482 0.500463 0.973531 0.990114 0.402424 0.974093 0.991674 0.303908 0.975582 
0.993496 0.204713 0.977677 0.994898 0.105073 0.980657 0.9 1 0 
0.8 1 0 0.7 1 0 0.6 1 0 
0.5 1 0 0.4 1 0 0.3 1 0 
0.2 1 0 0.1 1 0 -0.00427991 1.00426 0.0930648 
-0.005905 1.00588 0.188938 -0.00712317 1.00711 0.285759 -0.00785463 1.00788 0.383223 
-0.00813926 1.00821 0.481553 -0.00776662 1.00791 0.581003 -0.00637553 1.00659 0.681603 
-0.00362288 1.00393 0.782879 0.000428006 0.999964 0.883869 0.104688 0.995283 0.980186 
0.204324 0.993879 0.977233 0.303513 0.992059 0.975167 0.402014 0.990512 0.973718 
0.500053 0.989899 0.973211 0.598084 0.990487 0.973704 0.696568 0.99202 0.975139 
0.795742 0.993839 0.977196 0.89537 0.995247 0.980146 0 0.9 0 
0 0.8 0 0 0.7 0 0 0.6 0 
0 0.5 0 0 0.4 0 0 0.3 0 
0 0.2 0 0 0.1 0 0.00517791 0.105058 0.980702 
0.00657999 0.204698 0.977728 0.0084014 0.303891 0.97564 0.0099589 0.402407 0.974159 
0.0105826 0.500448 0.973606 0.00999272 0.598485 0.974036 0.00844916 0.696972 0.975403 
0.00661906 0.796152 0.97739 0.0052035 0.895786 0.980266 0.0973061 -0.00416277 0.0946767 
0.198067 -0.00423414 0.0948244 0.298683 -0.00431426 0.0947952 0.399323 -0.00438521 0.0947179 
0.499999 -0.00441351 0.0946832 0.600676 -0.00438707 0.0947159 0.701316 -0.00431795 0.0947913 
0.801933 -0.00423959 0.0948184 0.902695 -0.00416994 0.0946684 0.0952283 -0.00593053 0.190293 
0.196385 -0.00606896 0.190654 0.297512 -0.00625209 0.190546 0.398719 -0.00639587 0.190366 
0.5 -0.00645161 0.190285 0.601282 -0.00639853 0.190363 0.70249 -0.00625732 0.19054 
0.803618 -0.00607668 0.190644 0.904776 -0.0059407 0.190279 0.0939276 -0.00707751 0.286725 
0.195083 -0.00731703 0.286777 0.296516 -0.00761738 0.286446 0.398185 -0.00786463 0.286073 
0.500003 -0.00795969 0.285917 0.601821 -0.00786758 0.286068 0.703491 -0.00762322 0.286438 
0.804925 -0.00732565 0.286764 0.906081 -0.00708889 0.286707 0.0930117 -0.00779103 0.38374 
0.194113 -0.00815286 0.383238 0.295703 -0.00864628 0.382432 0.397729 -0.00905211 0.381736 
0.500007 -0.00920817 0.381464 0.602284 -0.00905489 0.381731 0.704311 -0.00865177 0.382422 
0.805902 -0.00816103 0.383222 0.907004 -0.00780192 0.383719 0.0924738 -0.0080932 0.481479 
0.193445 -0.0086862 0.480235 0.295105 -0.00948704 0.478783 0.397381 -0.0101402 0.477652 
0.500011 -0.0103895 0.477227 0.602642 -0.0101424 0.477647 0.704918 -0.0094913 0.478771 
0.806579 -0.00869268 0.480217 0.907551 -0.00810204 0.481454 0.0925199 -0.00778843 0.58013 
0.193282 -0.00873545 0.57806 0.294886 -0.00996443 0.575926 0.397239 -0.0109468 0.574354 
0.500017 -0.0113141 0.57378 0.602795 -0.0109479 0.574348 0.705148 -0.0099667 0.575913 
0.806751 -0.00873917 0.578041 0.907514 -0.00779383 0.580104 0.0935841 -0.00649167 0.679771 
0.194073 -0.00780252 0.677014 0.295417 -0.00945103 0.674413 0.397512 -0.0106858 0.672584 
0.500022 -0.0111338 0.671923 0.602533 -0.0106855 0.672577 0.704627 -0.0094508 0.674399 
0.805972 -0.00780276 0.676994 0.906461 -0.00649271 0.679743 0.0961541 -0.00374697 0.780161 
0.196348 -0.00502286 0.777138 0.297178 -0.00643793 0.774627 0.398491 -0.00749228 0.772844 
0.500028 -0.00785891 0.772203 0.601565 -0.00749079 0.772837 0.702878 -0.00643526 0.774613 
0.803708 -0.00501946 0.777117 0.903902 -0.00374332 0.780131 0.100276 0.000538223 0.880648 
0.200328 0.000290539 0.877748 0.300353 0.000162829 0.87543 0.400241 0.000153789 0.873952 
0.500033 0.000145741 0.873406 0.599827 0.000156278 0.873945 0.699714 0.00016768 0.875415 
0.799739 0.000297461 0.877726 0.899791 0.00054663 0.880618 1.00416 0.0972823 0.0946648 
1.00424 0.198045 0.0948004 1.00433 0.298663 0.0947593 1.00441 0.399307 0.0946703 
1.00445 0.499989 0.0946247 1.00443 0.600673 0.0946474 1.00437 0.701322 0.0947136 
1.0043 0.80195 0.0947313 1.00423 0.902729 0.0945704 1.00594 0.0951983 0.190263 
1.00609 0.196359 0.190604 1.00629 0.297491 0.190475 1.00645 0.398706 0.190274 
1.00651 0.499997 0.190172 1.00647 0.601291 0.190231 1.00634 0.702515 0.19039 
1.00616 0.803662 0.190476 1.00603 0.904844 0.190088 1.0071 0.093909 0.286676 
1.00736 0.195069 0.2867 1.00768 0.296509 0.286338 1.00795 0.398187 0.285933 
1.00806 0.500018 0.285748 1.00798 0.601854 0.285871 1.00774 0.703545 0.286215 
1.00745 0.805003 0.286516 1.00721 0.906183 0.286431 1.00785 0.0930204 0.383675 
1.00824 0.194126 0.383134 1.00875 0.295723 0.382288 1.00918 0.397759 0.381551 
1.00935 0.500051 0.381237 1.00921 0.60235 0.381467 1.00882 0.704403 0.382126 
1.00833 0.80602 0.382898 1.00797 0.907146 0.383364 1.0082 0.0925245 0.481398 
1.00882 0.193499 0.480107 1.00964 0.295163 0.478606 1.01032 0.397448 0.477424 
1.01059 0.500095 0.476947 1.01036 0.60275 0.477319 1.00972 0.705056 0.478407 
1.00892 0.806745 0.479824 1.00833 0.90774 0.481033 1.00796 0.0926259 0.580037 
1.00893 0.19339 0.577912 1.01018 0.294996 0.575721 1.01118 0.397355 0.57409 
1.01158 0.500148 0.573456 1.01123 0.602951 0.573972 1.01026 0.705336 0.575496 
1.00903 0.80697 0.577594 1.00808 0.907754 0.579631 1.00673 0.0937568 0.67967 
1.00806 0.194245 0.676852 1.00973 0.295592 0.674187 1.01098 0.397691 0.672292 
1.01146 0.500214 0.671567 1.01103 0.602746 0.672165 1.0098 0.704869 0.673945 
1.00815 0.80624 0.676512 1.00683 0.906746 0.679239 1.00406 0.0964009 0.780054 
1.00536 0.196595 0.776966 1.00679 0.297428 0.774386 1.00786 0.398747 0.772532 
1.00824 0.500293 0.771822 1.00788 0.601843 0.7724 1.00683 0.703173 0.774136 
1.00541 0.804017 0.776614 1.00413 0.90422 0.779611 0.999858 0.100599 0.880538 
1.00012 0.200653 0.87757 1.00026 0.300683 0.87518 1.00028 0.40058 0.873628 
1.00029 0.500381 0.873012 1.00027 0.600176 0.873493 1.00025 0.70006 0.874927 
1.00012 0.80008 0.877214 0.999869 0.90013 0.880091 0.902747 1.00422 0.0945673 
0.801967 1.0043 0.0947169 0.701337 1.00438 0.0946883 0.600686 1.00445 0.0946116 
0.499998 1.00448 0.0945791 0.39931 1.00445 0.0946153 0.29866 1.00438 0.0946953 
0.198032 1.00429 0.0947271 0.097255 1.00421 0.0945808 0.904863 1.00603 0.190075 
0.803679 1.00618 0.190444 0.702528 1.00636 0.190339 0.601299 1.00651 0.190161 
0.499998 1.00656 0.190084 0.398698 1.0065 0.190168 0.297471 1.00636 0.190353 
0.196323 1.00616 0.190464 0.0951426 1.00601 0.1901 0.906189 1.00723 0.286406 
0.805005 1.00748 0.286465 0.703543 1.00779 0.286136 0.601845 1.00804 0.285765 
0.5 1.00813 0.285616 0.398156 1.00803 0.285776 0.296462 1.00778 0.286157 
0.195004 1.00747 0.286493 0.0938238 1.00721 0.286441 0.907125 1.00801 0.383329 
0.805996 1.00839 0.382827 0.704373 1.0089 0.382019 0.602313 1.00931 0.381324 
0.500003 1.00946 0.381059 0.397695 1.0093 0.38134 0.29564 1.00888 0.382047 
0.194023 1.00837 0.382863 0.0928981 1.00799 0.383372 0.907679 1.00841 0.480987 
0.806681 1.00902 0.479735 0.704988 1.00984 0.478273 0.602675 1.0105 0.47714 
0.500007 1.01074 0.476723 0.397342 1.01048 0.477159 0.295036 1.00982 0.478306 
0.19335 1.009 0.479776 0.0923567 1.00839 0.481034 0.907641 1.00821 0.579577 
0.806857 1.00918 0.577489 0.705221 1.01043 0.575339 0.602829 1.01142 0.57376 
0.500013 1.01178 0.573191 0.3972 1.01141 0.573778 0.294817 1.01041 0.575371 
0.193188 1.00916 0.57753 0.092406 1.00819 0.579624 0.906572 1.00703 0.679179 
0.806066 1.00837 0.676395 0.704694 1.01003 0.67377 0.602567 1.01128 0.671929 
0.500022 1.01173 0.671271 0.397479 1.01127 0.671945 0.295355 1.01002 0.673799 
0.193987 1.00835 0.676433 0.093483 1.00702 0.679222 0.903978 1.00439 0.779547 
0.803775 1.00569 0.77649 0.702929 1.00712 0.773949 0.601595 1.00819 0.772148 
0.500033 1.00857 0.771507 0.39847 1.0082 0.772161 0.297131 1.00713 0.773975 
0.196283 1.00569 0.776526 0.0960784 1.00439 0.779587 0.899817 1.0002 0.880026 
0.799765 1.00046 0.877087 0.699741 1.00061 0.874735 0.599849 1.00064 0.873234 
0.500044 1.00067 0.872689 0.400234 1.00066 0.873254 0.300331 1.00064 0.874767 
0.200296 1.00049 0.877124 0.10024 1.00022 0.880067 -0.00422142 0.902722 0.0945844 
-0.00428762 0.801946 0.0947451 -0.00436069 0.701319 0.0947274 -0.00442346 0.600672 0.094661 
-0.00444277 0.49999 0.0946376 -0.00440669 0.39931 0.0946821 -0.00432735 0.298668 0.0947699 
-0.0042382 0.19805 0.09481 -0.00415695 0.0972889 0.0946736 -0.00601721 0.904831 0.190116 
-0.00614937 0.803653 0.190504 -0.0063237 0.70251 0.190418 -0.00645663 0.60129 0.190258 
-0.0065 0.499999 0.190197 -0.0064334 0.398711 0.190296 -0.00627769 0.297499 0.190495 
-0.00608141 0.196368 0.190622 -0.00592815 0.0952092 0.19028 -0.00719421 0.906166 0.286472 
[...]
POINT_DATA 1331
VECTORS displacement float
0 0 0
0 0 0
0 0 0
0 0 0
0.0048329 0.00521639 -0.0153846
-0.00475603 0.00523115 -0.0154235
-0.00478689 -0.00440351 -0.015962
0.00484286 -0.00436778 -0.0159203
0 0 0
0 0 0
0 0 0
0 0 0
0 0 0
0 0 0
0 0 0
0 0 0
0 0 0
0.00420501 -0.00422685 -0.00682527
0.00580131 -0.0058285 -0.0108704
0.00700544 -0.00701691 -0.0139728
0.00773558 -0.00771261 -0.0164358
0.00802823 -0.00795401 -0.0180416
0.00767313 -0.00753268 -0.0185418
0.00631092 -0.00609205 -0.0179107
0.0036003 -0.00329551 -0.0166222
-0.00039761 0.000789474 -0.0156325
-0.00459922 0.00558874 -0.019263
-0.00423692 0.00700199 -0.0221664
-0.00342304 0.00883361 -0.024182
-0.00192506 0.0103907 -0.0255898
3.80947e-05 0.0110001 -0.0260736
0.00200124 0.010387 -0.0255822
0.00349928 0.00882623 -0.024167
0.00431322 0.00699119 -0.0221443
0.00467575 0.00557534 -0.0192331
0.000464835 0.00078021 -0.0155937
-0.00354367 -0.00329923 -0.0165839
-0.00626522 -0.00609007 -0.0178738
-0.00763802 -0.00752537 -0.0185069
-0.00800285 -0.00794253 -0.0180093
-0.0077186 -0.0076987 -0.016407
-0.00699509 -0.00700252 -0.0139486
-0.00579555 -0.00581583 -0.0108518
-0.00420131 -0.00421799 -0.00681384
0 0 0
0 0 0
0 0 0
0 0 0
0 0 0
0 0 0
0 0 0
0 0 0
0 0 0
0.0042859 0.00426914 -0.0069531
0.00591408 0.00589367 -0.0110928
0.00713898 0.00713137 -0.0142834
0.00788014 0.00789983 -0.0168278
0.00817617 0.00823627 -0.0185015
0.00781402 0.00792644 -0.0190494
0.00642931 0.00660422 -0.0184438
0.00367856 0.00392278 -0.0171635
-0.000372795 -5.76238e-05 -0.0161729
-0.00515019 -0.00424781 -0.019789
-0.00657228 -0.00387326 -0.0226761
-0.00840479 -0.00303991 -0.0246677
-0.00994139 -0.00151054 -0.0260371
-0.0105185 0.000462503 -0.0264686
-0.00988622 0.00242392 -0.0259071
-0.00832586 0.00390798 -0.0244178
-0.00650377 0.00471336 -0.0223232
-0.00510182 0.00507255 -0.0193427
0 0 0
0 0 0
0 0 0
0 0 0
0 0 0
0 0 0
0 0 0
0 0 0
0 0 0
-0.00427991 0.004258 -0.00693516
-0.005905 0.00587766 -0.0110616
-0.00712317 0.00711152 -0.0142408
-0.00785463 0.0078774 -0.0167767
-0.00813926 0.00821327 -0.0184468
-0.00776662 0.00790688 -0.0189969
-0.00637553 0.00659423 -0.0183969
-0.00362288 0.00392755 -0.017121
0.000428006 -3.62247e-05 -0.0161314
0.00468767 -0.00471657 -0.0198137
0.00432419 -0.00612081 -0.0227666
0.00351313 -0.00794137 -0.0248326
0.00201434 -0.0094882 -0.0262816
5.29208e-05 -0.0101008 -0.0267895
-0.00191629 -0.00951294 -0.0262963
-0.00343177 -0.00797955 -0.0248606
-0.00425785 -0.00616079 -0.0228043
-0.00462972 -0.00475266 -0.0198542
0 0 0
0 0 0
0 0 0
0 0 0
0 0 0
0 0 0
0 0 0
0 0 0
0 0 0
0.00517791 0.00505778 -0.0192982
0.00657999 0.0046979 -0.0222722
0.0084014 0.00389119 -0.0243596
0.0099589 0.00240698 -0.0258412
0.0105826 0.000447689 -0.0263943
0.00999272 -0.00151545 -0.0259642
0.00844916 -0.00302816 -0.0245966
0.00661906 -0.00384775 -0.0226098
0.0052035 -0.00421437 -0.0197339
-0.00269389 -0.00416277 -0.00532332
-0.00193287 -0.00423414 -0.00517563
-0.0013167 -0.00431426 -0.00520476
-0.000677126 -0.00438521 -0.00528213
-6.74499e-07 -0.00441351 -0.00531681
0.000675901 -0.00438707 -0.00528407
0.00131585 -0.00431795 -0.00520866
0.00193272 -0.00423959 -0.0051816
0.00269503 -0.00416994 -0.00533163
-0.00477168 -0.00593053 -0.00970729
-0.00361491 -0.00606896 -0.00934625
-0.00248811 -0.00625209 -0.00945363
-0.00128051 -0.00639587 -0.0096337
4.45388e-07 -0.00645161 -0.00971482
0.00128162 -0.00639853 -0.00963692
0.00248983 -0.00625732 -0.00946012
0.00361765 -0.00607668 -0.00935626
0.00477588 -0.0059407 -0.00972149
-0.00607238 -0.00707751 -0.013275
-0.00491715 -0.00731703 -0.0132228
-0.00348425 -0.00761738 -0.0135535
-0.00181506 -0.00786463 -0.0139273
2.93894e-06 -0.00795969 -0.0140825
0.00182118 -0.00786758 -0.0139316
0.00349106 -0.00762322 -0.0135621
0.004925 -0.00732565 -0.0132361
0.00608141 -0.00708889 -0.0132935
-0.00698831 -0.00779103 -0.0162595
-0.00588745 -0.00815286 -0.0167618
-0.00429716 -0.00864628 -0.0175675
-0.0022708 -0.00905211 -0.0182635
6.59247e-06 -0.00920817 -0.0185359
0.00228421 -0.00905489 -0.0182686
0.0043112 -0.00865177 -0.0175778
0.00590238 -0.00816103 -0.0167775
0.00700423 -0.00780192 -0.0162813
-0.00752618 -0.0080932 -0.0185213
-0.00655484 -0.0086862 -0.0197652
-0.00489529 -0.00948704 -0.0212171
-0.00261943 -0.0101402 -0.0223477
1.11882e-05 -0.0103895 -0.0227727
0.00264198 -0.0101424 -0.0223534
0.00491831 -0.0094913 -0.0212287
0.00657855 -0.00869268 -0.0197829
0.00755069 -0.00810204 -0.0185456
-0.00748012 -0.00778843 -0.01987
-0.00671767 -0.00873545 -0.0219402
-0.00511434 -0.00996443 -0.0240741
-0.00276146 -0.0109468 -0.0256456
1.64904e-05 -0.0113141 -0.0262201
0.00279452 -0.0109479 -0.0256519
0.00514764 -0.0099667 -0.0240868
0.00675141 -0.00873917 -0.0219595
0.00751448 -0.00779383 -0.0198963
-0.00641587 -0.00649167 -0.0202286
-0.00592736 -0.00780252 -0.0229859
-0.00458257 -0.00945103 -0.0255874
-0.00248816 -0.0106858 -0.0274158
2.22159e-05 -0.0111338 -0.0280765
0.00253258 -0.0106855 -0.0274225
0.004627 -0.0094508 -0.025601
0.00597196 -0.00780276 -0.0230064
0.0064609 -0.00649271 -0.0202565
-0.00384595 -0.00374697 -0.0198394
-0.00365205 -0.00502286 -0.0228618
-0.00282224 -0.00643793 -0.0253726
-0.00150862 -0.00749228 -0.0271558
2.80236e-05 -0.00785891 -0.0277967
0.00156462 -0.00749079 -0.0271631
0.00287813 -0.00643526 -0.025387
0.0037079 -0.00501946 -0.0228834
0.00390203 -0.00374332 -0.0198686
0.000275639 0.000538223 -0.0193522
0.000328213 0.000290539 -0.0222522
0.000352778 0.000162829 -0.0245703
0.000240527 0.000153789 -0.0260479
3.34969e-05 0.000145741 -0.0265938
-0.000173529 0.000156278 -0.0260554
-0.000285791 0.00016768 -0.0245851
-0.000261272 0.000297461 -0.0222743
-0.000208712 0.00054663 -0.019382
0.00416199 -0.00271768 -0.00533524
0.00424435 -0.00195541 -0.00519956
0.00433441 -0.00133669 -0.00524066
0.00441449 -0.000693141 -0.00532969
0.00445112 -1.11505e-05 -0.00537527
0.00443208 0.000672623 -0.00535258
0.00436922 0.00132161 -0.00528641
0.0042957 0.0019501 -0.0052687
0.00422863 0.00272934 -0.00542959
0.00593652 -0.0048017 -0.00973739
0.00609167 -0.00364063 -0.00939621
0.00628953 -0.00250874 -0.00952512
0.00644655 -0.00129403 -0.00972646
0.00651413 -3.23959e-06 -0.00982788
0.00647121 0.00129079 -0.00976877
0.00633804 0.00251494 -0.00960953
0.00616269 0.00366206 -0.00952362
0.00602886 0.00484397 -0.00991223
0.00710462 -0.00609099 -0.0133238
0.00736448 -0.00493063 -0.0133004
0.0076828 -0.00349112 -0.0136617
0.00794639 -0.00181271 -0.0140666
0.00805611 1.84194e-05 -0.014252
0.0079763 0.00185415 -0.014129
0.00774092 0.00354518 -0.0137849
0.00744854 0.00500258 -0.0134836
0.00721301 0.00618307 -0.0135692
0.00785349 -0.00697958 -0.0163254
0.00823733 -0.00587411 -0.016866
0.00875082 -0.00427742 -0.0177118
0.00917577 -0.00224123 -0.0184492
0.00934965 5.14134e-05 -0.0187625
0.00921109 0.00235038 -0.0185328
0.00881764 0.00440301 -0.0178741
0.00833094 0.00602043 -0.0171019
0.00797173 0.00714637 -0.0166355
0.00820416 -0.00747552 -0.0186019
0.00881937 -0.00650105 -0.0198931
0.00964145 -0.00483671 -0.0213942
0.0103165 -0.00255204 -0.0225763
0.0105877 9.45968e-05 -0.0230529
0.0103596 0.00274977 -0.0226805
0.00971879 0.00505567 -0.021593
0.00892094 0.00674465 -0.0201757
0.00832701 0.00774013 -0.0189671
0.00795957 -0.00737414 -0.0199625
0.00892751 -0.00661037 -0.0220877
0.0101774 -0.00500442 -0.0242786
0.0111831 -0.00264483 -0.0259101
0.011576 0.000147809 -0.0265442
0.0112318 0.00295105 -0.0260284
0.0102615 0.00533637 -0.0245038
0.0090317 0.00696986 -0.0224061
0.0080787 0.00775394 -0.0203687
0.00673267 -0.0062432 -0.02033
0.0080619 -0.00575453 -0.0231482
0.00972882 -0.00440828 -0.0258131
0.0109845 -0.00230909 -0.0277077
0.0114561 0.000213584 -0.0284327
0.0110288 0.0027462 -0.0278353
0.00980374 0.00486867 -0.0260548
0.00815259 0.00623962 -0.0234878
0.00683375 0.0067457 -0.0207612
0.0040645 -0.00359909 -0.0199463
0.005356 -0.00340483 -0.0230343
0.00678617 -0.00257241 -0.0256135
0.00785515 -0.00125335 -0.0274682
0.00823641 0.000292694 -0.028178
0.00787967 0.00184322 -0.0275999
0.00682906 0.00317275 -0.025864
0.00540965 0.00401691 -0.0233859
0.00412794 0.0042201 -0.0203894
-0.000141843 0.000598818 -0.0194615
0.000120194 0.000652974 -0.0224301
0.000261331 0.000683008 -0.0248195
0.000278616 0.000579971 -0.0263724
0.00028707 0.000380547 -0.0269881
0.000270897 0.00017592 -0.0265069
0.000252283 6.00652e-05 -0.0250733
0.000118927 8.0068e-05 -0.0227856
-0.000131201 0.000130446 -0.0199089
0.00274667 0.00422275 -0.00543267
0.00196734 0.00429972 -0.00528308
0.00133729 0.00438226 -0.00531172
0.000685494 0.00445351 -0.00538835
-2.30494e-06 0.00448034 -0.00542092
-0.00068964 0.00445084 -0.00538468
-0.00134018 0.00437711 -0.00530467
-0.00196836 0.00429234 -0.00527288
-0.00274505 0.0042134 -0.00541922
0.00486323 0.00602636 -0.00992511
0.00367891 0.00617504 -0.00955551
0.00252839 0.00636355 -0.00966096
0.00129913 0.00650865 -0.00983905
-2.06282e-06 0.00656243 -0.00991614
-0.00130235 0.00650456 -0.00983188
-0.00252921 0.00635582 -0.00964737
-0.00367653 0.00616425 -0.00953629
-0.0048574 0.00601291 -0.00990008
0.00618908 0.00722661 -0.0135935
0.00500519 0.00748001 -0.0135351
0.00354301 0.00778812 -0.0138639
0.00184512 0.0080377 -0.0142353
-2.8453e-07 0.00813032 -0.0143845
-0.00184417 0.00803183 -0.014224
-0.00353827 0.00777746 -0.0138433
-0.00499602 0.00746591 -0.013507
-0.00617624 0.00720979 -0.0135588
0.00712519 0.00801399 -0.0166709
0.00599592 0.00839248 -0.0171731
0.00437346 0.00889636 -0.0179814
0.00231309 0.00930556 -0.0186762
2.63315e-06 0.00945844 -0.0189409
-0.00230548 0.00929686 -0.0186604
-0.00436016 0.00888151 -0.0179533
-0.00597665 0.0083745 -0.017137
-0.00710191 0.00799426 -0.0166285
0.0076791 0.00840974 -0.0190126
0.00668123 0.00902331 -0.0202653
0.0049881 0.00983918 -0.0217272
0.00267466 0.0104972 -0.0228599
6.9099e-06 0.0107416 -0.0232765
-0.00265769 0.010484 -0.0228406
-0.00496374 0.00981834 -0.0216936
-0.00664953 0.00900135 -0.020224
-0.00764326 0.00838835 -0.0189659
0.00764151 0.00821271 -0.0204226
0.00685654 0.00918486 -0.0225113
0.00522058 0.0104331 -0.0246614
0.00282894 0.0114221 -0.0262398
1.28338e-05 0.011785 -0.0268086
-0.00279985 0.0114079 -0.0262222
-0.00518347 0.0104108 -0.0246293
-0.00681216 0.00916221 -0.0224696
-0.007594 0.00819325 -0.0203761
0.0065718 0.00702819 -0.0208213
0.00606611 0.008365 -0.0236047
0.00469415 0.0100341 -0.0262303
0.00256679 0.0112785 -0.0280714
2.22554e-05 0.0117261 -0.0287286
-0.00252091 0.0112703 -0.0280552
-0.00464517 0.0100209 -0.026201
-0.00601345 0.00835165 -0.0235673
-0.00651701 0.00701709 -0.0207779
0.00397754 0.00438905 -0.0204532
0.00377478 0.00568716 -0.0235101
0.00292908 0.00712309 -0.0260507
0.00159478 0.00819136 -0.0278519
3.31283e-05 0.00856603 -0.0284933
-0.00153038 0.00819773 -0.0278389
-0.00286885 0.0071306 -0.0260251
-0.00371726 0.00569301 -0.0234738
-0.00392161 0.00439372 -0.0204125
-0.000183226 0.000198766 -0.019974
-0.000234671 0.000463948 -0.0229132
-0.000258985 0.000612103 -0.0252653
-0.000151297 0.000643416 -0.0267661
4.3522e-05 0.00066755 -0.0273105
0.000233578 0.000658968 -0.0267458
0.000330582 0.000636841 -0.0252332
0.00029582 0.0004887 -0.022876
0.000239647 0.000220327 -0.0199332
-0.00422142 0.00272232 -0.00541564
-0.00428762 0.00194559 -0.00525492
-0.00436069 0.00131928 -0.00527263
-0.00442346 0.000672373 -0.00533904
-0.00444277 -9.52068e-06 -0.00536244
-0.00440669 -0.000689972 -0.00531789
-0.00432735 -0.00133233 -0.00523006
-0.0042382 -0.00195004 -0.00518999
-0.00415695 -0.00271114 -0.00532641
-0.00601721 0.00483145 -0.00988418
-0.00614937 0.00365344 -0.00949632
-0.0063237 0.00251021 -0.00958232
-0.00645663 0.0012899 -0.00974227
-0.0065 -7.34056e-07 -0.00980302
-0.0064334 -0.00128882 -0.00970392
-0.00627769 -0.00250149 -0.00950501
-0.00608141 -0.00363165 -0.00937812
-0.00592815 -0.00479082 -0.00972017
-0.00719421 0.0061665 -0.0135285
-0.00742722 0.00499026 -0.0134426
-0.007718 0.00353811 -0.0137436
-0.00795314 0.00185259 -0.0140889
-0.00803401 2.1637e-05 -0.0142149
-0.00792614 -0.00180598 -0.0140335
-0.00766471 -0.00348199 -0.0136325
-0.00734863 -0.00491963 -0.0132742
-0.00709127 -0.00607824 -0.0132993
-0.00794287 0.00712637 -0.0165844
-0.00829836 0.00600478 -0.0170485
-0.0087826 0.00439383 -0.0178192
-0.00917612 0.00234839 -0.0184796
-0.00931709 5.53607e-05 -0.0187141
-0.00914672 -0.00223346 -0.0184067
-0.00872514 -0.0042675 -0.0176747
-0.00821457 -0.00586279 -0.0168329
-0.00783348 -0.00696694 -0.0162949
-0.00828641 0.00771824 -0.0189095
-0.00887484 0.00672688 -0.0201136
-0.00966834 0.00504522 -0.0215279
-0.01031 0.00274755 -0.0226174
-0.0105435 9.88517e-05 -0.022996
-0.010278 -0.00254429 -0.0225268
-0.00960757 -0.00482761 -0.0213511
-0.00878873 -0.00649126 -0.0198546
-0.00817612 -0.00746495 -0.0185667
-0.00802769 0.00773417 -0.0203098
-0.00897402 0.00695306 -0.0223412
-0.0102002 0.00532657 -0.0244372
-0.0111728 0.00294945 -0.0259638
-0.0115232 0.000151426 -0.0264841
-0.0111372 -0.00263932 -0.0258567
-0.010136 -0.00499844 -0.0242313
-0.00888874 -0.00660419 -0.0220453
-0.00792261 -0.00736748 -0.0199238
-0.00677728 0.00673456 -0.0207045
-0.00809263 0.00623075 -0.0234254
-0.009743 0.00486378 -0.0259887
-0.0109714 0.0027443 -0.0277698
-0.0114037 0.000213488 -0.028372
-0.0109354 -0.00230873 -0.0276514
-0.00968136 -0.00440795 -0.0257625
-0.00801499 -0.00575368 -0.0231026
-0.00668625 -0.00624176 -0.0202886
-0.00407265 0.00422445 -0.0203348
-0.00535654 0.00402025 -0.0233228
-0.00677973 0.00317449 -0.0257984
-0.00783336 0.00184156 -0.0275336
-0.00818843 0.000287535 -0.0281117
-0.00780381 -0.00126016 -0.0274074
-0.00673182 -0.00257845 -0.0255589
-0.00530032 -0.00340974 -0.0229857
-0.00400818 -0.00360318 -0.019903
0.000184412 0.000150397 -0.0198537
-7.10704e-05 9.58453e-05 -0.0227202
-0.000207839 6.66096e-05 -0.0249988
-0.000224049 0.000172836 -0.0264287
-0.000234615 0.00037048 -0.026916
-0.000218479 0.000567744 -0.0263068
-0.000196707 0.000671926 -0.0247619
-5.43169e-05 0.000643119 -0.0223796
0.000208242 0.000589508 -0.0194172
0 0 0
0 0 0
0 0 0
0 0 0
0 0 0
0 0 0
0 0 0
0 0 0
0 0 0
0 0 0
0 0 0
0 0 0
0 0 0
0 0 0
0 0 0
0 0 0
0 0 0
0 0 0
0 0 0
0 0 0
0 0 0
0 0 0
0 0 0
0 0 0
0 0 0
0 0 0
0 0 0
0 0 0
0 0 0
0 0 0
0 0 0
0 0 0
0 0 0
0 0 0
0 0 0
0 0 0
0 0 0
0 0 0
0 0 0
0 0 0
0 0 0
0 0 0
0 0 0
0 0 0
0 0 0
0 0 0
0 0 0
0 0 0
0 0 0
0 0 0
0 0 0
0 0 0
0 0 0
0 0 0
0 0 0
0 0 0
0 0 0
0 0 0
0 0 0
0 0 0
0 0 0
0 0 0
0 0 0
0 0 0
0 0 0
0 0 0
0 0 0
0 0 0
0 0 0
0 0 0
0 0 0
0 0 0
0 0 0
0 0 0
0 0 0
0 0 0
0 0 0
0 0 0
0 0 0
0 0 0
0 0 0
0.00498263 0.00537797 -0.0242189
0.00464939 0.00729684 -0.0286258
0.00363837 0.00965548 -0.0329397
0.00207989 0.0115688 -0.035871
3.66404e-05 0.0122523 -0.0371163
-0.0020063 0.011572 -0.0358801
-0.00356427 0.00966216 -0.0329577
-0.00457452 0.00730718 -0.0286523
-0.00490709 0.00539133 -0.024254
0.00688706 0.00504573 -0.0286884
0.00718043 0.00758796 -0.0381402
0.00616428 0.0130433 -0.044357
0.00252165 0.0151301 -0.0517264
3.50653e-05 0.0152553 -0.0532948
-0.00245094 0.0151305 -0.0517367
-0.00609032 0.0130459 -0.0443776
-0.00710484 0.00759685 -0.0381705
-0.00681104 0.00505911 -0.0287295
0.00923298 0.00404037 -0.0330684
0.0126144 0.00657773 -0.0444137
0.00613664 0.00657342 -0.1
0.00398423 0.00856994 -0.1
3.19847e-05 0.0091277 -0.1
-0.00391814 0.00856426 -0.1
-0.00606712 0.00656638 -0.1
-0.0125351 0.00658304 -0.0444503
-0.00915676 0.00405329 -0.0331168
0.0111345 0.00248564 -0.0360759
0.0146927 0.00294959 -0.0518602
0.00813477 0.0044526 -0.1
0.00437635 0.00484432 -0.1
1.41275e-05 0.00510102 -0.1
-0.00432932 0.00480308 -0.1
-0.00806353 0.00441147 -0.1
-0.0146118 0.00294587 -0.0519064
-0.0110617 0.00249684 -0.0361316
0.0118312 0.000458764 -0.037411
0.0147663 0.000435986 -0.0535465
0.00874017 0.000536992 -0.1
0.00458087 0.000618089 -0.1
-2.33538e-05 0.000437649 -0.1
-0.00460169 0.000420983 -0.1
-0.00871099 0.00037509 -0.1
-0.0146974 0.000417867 -0.0535911
-0.0117634 0.000463843 -0.0374739
0.0111784 -0.00160172 -0.0362452
0.0147009 -0.00198221 -0.052204
0.00771901 -0.00382461 -0.1
0.00444599 -0.00397199 -0.1
-0.000182097 -0.00408144 -0.1
-0.00461106 -0.00414507 -0.1
-0.00762612 -0.0039524 -0.1
-0.0145953 -0.0020147 -0.0521926
-0.0111245 -0.00160206 -0.0363327
0.00928194 -0.00316732 -0.0333705
0.0126419 -0.00570219 -0.044894
0.00586884 -0.00536935 -0.1
0.00431756 -0.00721936 -0.1
-0.000128489 -0.00832361 -0.1
-0.00441774 -0.00719034 -0.1
-0.0057799 -0.00534219 -0.1
-0.0125627 -0.00573532 -0.044937
-0.00924055 -0.0031771 -0.033457
0.00692543 -0.00419541 -0.0290933
0.00717914 -0.00668708 -0.0385944
0.00619501 -0.0121311 -0.0449666
0.00247744 -0.0141826 -0.0523737
1.73597e-05 -0.0142086 -0.0538432
-0.00244255 -0.0141578 -0.0523269
-0.00614857 -0.0121331 -0.0449937
-0.00712869 -0.00672105 -0.038666
-0.00688049 -0.00422148 -0.0291633
0.00500434 -0.0045201 -0.0247035
0.00468 -0.00642925 -0.0291704
0.0036564 -0.00877651 -0.0335296
0.00209238 -0.0106682 -0.0364967
4.18188e-05 -0.0113422 -0.0377688
-0.00200773 -0.0106899 -0.0365377
-0.00357907 -0.00881762 -0.0335858
-0.00461779 -0.00647043 -0.029226
-0.00495018 -0.00455478 -0.0247593
-0.00268436 -0.00269249 -0.00380462
-0.00189258 -0.00271471 -0.00362497
-0.00126735 -0.00277571 -0.0036088
-0.000644284 -0.00282942 -0.00364919
-2.17068e-08 -0.00285121 -0.0036695
0.000644366 -0.0028308 -0.00365048
0.00126782 -0.00277843 -0.00361143
0.00189375 -0.00271871 -0.00362904
0.00268686 -0.00269775 -0.00381037
-0.00271356 -0.00190168 -0.00363203
-0.00191237 -0.0019159 -0.00344571
-0.00127483 -0.00195968 -0.00342724
-0.00064596 -0.00200269 -0.00346616
2.04923e-07 -0.00202018 -0.00348599
0.000646526 -0.00200383 -0.00346753
0.00127586 -0.00196191 -0.00342997
0.00191422 -0.00191917 -0.00344991
0.00271685 -0.00190599 -0.00363796
-0.00278058 -0.00127583 -0.00362319
-0.0019606 -0.00127875 -0.00343412
-0.00130832 -0.00130891 -0.00341979
-0.000662921 -0.00133936 -0.00346379
2.27997e-07 -0.00135208 -0.0034857
0.00066358 -0.00134029 -0.00346533
0.00130957 -0.00131072 -0.00342285
0.00196283 -0.0012814 -0.00343876
0.00278444 -0.0012793 -0.00362968
-0.0028397 -0.000650764 -0.00367068
-0.00200743 -0.000648822 -0.00347967
-0.00134144 -0.000663437 -0.00347027
-0.000680371 -0.000679254 -0.00351968
1.45734e-07 -0.000685951 -0.00354386
0.000680918 -0.000679911 -0.00352145
0.00134271 -0.000664719 -0.00347374
0.00200987 -0.0006507 -0.00348486
0.00284398 -0.000653252 -0.0036779
-0.00286643 -3.29271e-06 -0.00369784
-0.00202829 -3.56393e-07 -0.00350592
-0.00135637 1.058e-06 -0.00349847
-0.000688248 1.62716e-06 -0.00355014
1.17383e-08 1.68182e-06 -0.0035753
0.000688575 1.3291e-06 -0.00355212
0.00135755 4.6791e-07 -0.00350233
0.0020308 -1.24392e-06 -0.00351165
0.00287097 -4.51322e-06 -0.00370575
-0.00285051 0.000645544 -0.00368552
-0.0020149 0.000649481 -0.00349382
-0.00134639 0.000666979 -0.00348437
-0.000683008 0.000684002 -0.00353399
-1.52347e-07 0.00069086 -0.0035584
0.00068304 0.000684144 -0.00353613
0.00134737 0.000667231 -0.00348852
0.00201732 0.000649788 -0.00349995
0.00285511 0.000645852 -0.00369396
-0.00280202 0.00127494 -0.00365327
-0.0019754 0.00128377 -0.00346282
-0.00131813 0.00131696 -0.00344837
-0.000668132 0.00134879 -0.00349278
-3.62282e-07 0.00136181 -0.00351511
0.000667761 0.00134942 -0.003495
0.00131874 0.00131813 -0.00345269
0.00197753 0.00128539 -0.0034692
0.00280642 0.00127694 -0.003662
-0.00274527 0.00190909 -0.00367852
-0.00193426 0.00192927 -0.00349018
-0.00128934 0.00197628 -0.0034716
-0.000653674 0.00202091 -0.00351116
-6.83161e-07 0.00203889 -0.00353159